 DBCSR| Multiplication driver                                               XSMM
 DBCSR| Multrec recursion limit                                              512
 DBCSR| Multiplication stack size                                           1000
 DBCSR| Maximum elements for images                                    UNLIMITED
 DBCSR| Multiplicative factor virtual images                                   1
 DBCSR| Multiplication size stacks                                             3
 DBCSR| Number of 3D layers                                               SINGLE
 DBCSR| Use MPI memory allocation                                              T
 DBCSR| Use RMA algorithm                                                      F
 DBCSR| Use Communication thread                                               T
 DBCSR| Communication thread load                                             87


  **** **** ******  **  PROGRAM STARTED AT               2022-02-22 12:44:39.723
 ***** ** ***  *** **   PROGRAM STARTED ON                            sebnode115
 **    ****   ******    PROGRAM STARTED BY                                luehrs
 ***** **    ** ** **   PROGRAM PROCESS ID                                 24257
  **** **  *******  **  PROGRAM STARTED IN /home/luehrs/Sulphur_Surface_Reaction
                                           /S8_2Li_position/3.S8_o

 CP2K| version string:                    CP2K version 7.0 (Development Version)
 CP2K| source code revision number:                                             
 CP2K| cp2kflags: libint fftw3 libxc parallel mpi3 scalapack xsmm libderiv_max_a
 CP2K|            m1=8 libint_max_am=9 max_contr=4
 CP2K| is freely available from                            https://www.cp2k.org/
 CP2K| Program compiled at                         Sun Jun 24 14:37:16 CEST 2018
 CP2K| Program compiled on                                            sebstorage
 CP2K| Program compiled for                                Linux-x86-64-gfortran
 CP2K| Data directory path    /home/brehm/Software_Batchnode/2018/Source/cp2k_18
 CP2K| Input file name                                               input3o.inp

 GLOBAL| Force Environment number                                              1
 GLOBAL| Basis set file name                                      ./BASIS_MOLOPT
 GLOBAL| Potential file name                                    ./GTH_POTENTIALS
 GLOBAL| MM Potential file name                                     MM_POTENTIAL
 GLOBAL| Coordinate file name                                   ./newanim.3o.xyz
 GLOBAL| Method name                                                        CP2K
 GLOBAL| Project name                                                   Li_relax
 GLOBAL| Preferred FFT library                                             FFTW3
 GLOBAL| Preferred diagonalization lib.                                       SL
 GLOBAL| Run type                                                        GEO_OPT
 GLOBAL| All-to-all communication in single precision                          F
 GLOBAL| FFTs using library dependent lengths                                  F
 GLOBAL| Global print level                                                  LOW
 GLOBAL| Total number of message passing processes                            16
 GLOBAL| Number of threads for this process                                    1
 GLOBAL| This output is from process                                           0
 GLOBAL| CPU model name :  Intel(R) Xeon(R) CPU E5-2620 v4 @ 2.10GHz

 MEMORY| system memory details [Kb]
 MEMORY|                        rank 0           min           max       average
 MEMORY| MemTotal             65854592      65854592      65854592      65854592
 MEMORY| MemFree              48522876      48522876      48522876      48522876
 MEMORY| Buffers                871828        871828        871828        871828
 MEMORY| Cached               14603728      14603728      14603728      14603728
 MEMORY| Slab                   969976        969976        969976        969976
 MEMORY| SReclaimable           792248        792248        792248        792248
 MEMORY| MemLikelyFree        64790680      64790680      64790680      64790680


 GENERATE|  Preliminary Number of Bonds generated:                             0
 GENERATE|  Achieved consistency in connectivity generation.

 *******************************************************************************
 *******************************************************************************
 **                                                                           **
 **     #####                         ##              ##                      **
 **    ##   ##            ##          ##              ##                      **
 **   ##     ##                       ##            ######                    **
 **   ##     ##  ##   ##  ##   #####  ##  ##   ####   ##    #####    #####    **
 **   ##     ##  ##   ##  ##  ##      ## ##   ##      ##   ##   ##  ##   ##   **
 **   ##  ## ##  ##   ##  ##  ##      ####     ###    ##   ######   ######    **
 **    ##  ###   ##   ##  ##  ##      ## ##      ##   ##   ##       ##        **
 **     #######   #####   ##   #####  ##  ##  ####    ##    #####   ##        **
 **           ##                                                    ##        **
 **                                                                           **
 **                                                ... make the atoms dance   **
 **                                                                           **
 **            Copyright (C) by CP2K developers group (2000 - 2018)           **
 **                                                                           **
 *******************************************************************************


 TOTAL NUMBERS AND MAXIMUM NUMBERS

  Total number of            - Atomic kinds:                                   2
                             - Atoms:                                        578
                             - Shell sets:                                   578
                             - Shells:                                      2888
                             - Primitive Cartesian functions:               3466
                             - Cartesian basis functions:                   8076
                             - Spherical basis functions:                   7500

  Maximum angular momentum of- Orbital basis functions:                        2
                             - Local part of the GTH pseudopotential:          6
                             - Non-local part of the GTH pseudopotential:      2


 SCF PARAMETERS         Density guess:                                   RESTART
                        --------------------------------------------------------
                        max_scf:                                              30
                        max_scf_history:                                       0
                        max_diis:                                              4
                        --------------------------------------------------------
                        eps_scf:                                        1.00E-06
                        eps_scf_history:                                0.00E+00
                        eps_diis:                                       1.00E-01
                        eps_eigval:                                     1.00E-05
                        --------------------------------------------------------
                        level_shift [a.u.]:                                 0.00
                        --------------------------------------------------------
                        Outer loop SCF in use 
                        No variables optimised in outer loop
                        eps_scf                                         1.00E-06
                        max_scf                                               25
                        DIIS optimization
                        DIIS buffer length                                     3
                        step_size                                       5.00E-01

 BFGS| Use rational function optimization for step estimation:                NO
 BFGS| Use model Hessian for initial guess:                                  YES
 BFGS| Restart Hessian:                                                       NO
 BFGS| Trust radius:                                                       0.472

 *******************************************************************************
 ***                     STARTING GEOMETRY OPTIMIZATION                      ***
 ***                                   BFGS                                  ***
 *******************************************************************************

 Number of electrons:                                                       3462
 Number of occupied orbitals:                                               1731
 Number of molecular orbitals:                                              1731

 Number of orbital functions:                                               7500
 Number of independent orbital functions:                                   7500

 Extrapolation method: initial_guess


 SCF WAVEFUNCTION OPTIMIZATION

  ----------------------------------- OT ---------------------------------------
  Minimizer      : DIIS                : direct inversion
                                         in the iterative subspace
                                         using   8 DIIS vectors
                                         safer DIIS on
  Preconditioner : FULL_KINETIC        : inversion of T + eS
  Precond_solver : DEFAULT
  stepsize       :    0.15000000                  energy_gap     :    0.00010000
  eps_taylor     :   0.10000E-15                  max_taylor     :             4
  ----------------------------------- OT ---------------------------------------

  Step     Update method      Time    Convergence         Total energy    Change
  ------------------------------------------------------------------------------
     1 OT DIIS     0.15E+00   17.6     0.00000092     -5897.6574240028 -5.90E+03

  *** SCF run converged in     1 steps ***


  Electronic density on regular grids:      -3462.0000000006       -0.0000000006
  Core density on regular grids:             3461.9999999952       -0.0000000048
  Total charge density on r-space grids:       -0.0000000053
  Total charge density g-space grids:          -0.0000000045

  Overlap energy of the core charge distribution:               0.00000032822988
  Self energy of the core charge distribution:             -13940.11712806587093
  Core Hamiltonian energy:                                   3142.95074240969916
  Hartree energy:                                            6201.92725121651529
  Exchange-correlation energy:                              -1299.96431527492541
  Dispersion energy:                                           -2.45397461647832

  Total energy:                                             -5897.65742400283034

  outer SCF iter =    1 RMS gradient =   0.92E-06 energy =      -5897.6574240028
  outer SCF loop converged in   1 iterations or    1 steps


 ENERGY| Total FORCE_EVAL ( QS ) energy (a.u.):            -5897.657425285648060


 --------  Informations at step =     0 ------------
  Optimization Method        =                 BFGS
  Total Energy               =     -5897.6574252856
  Used time                  =               49.921
 ---------------------------------------------------

 --------------------------
 OPTIMIZATION STEP:      1
 --------------------------

 Number of electrons:                                                       3462
 Number of occupied orbitals:                                               1731
 Number of molecular orbitals:                                              1731

 Number of orbital functions:                                               7500
 Number of independent orbital functions:                                   7500

 Extrapolation method: ASPC


 SCF WAVEFUNCTION OPTIMIZATION

  ----------------------------------- OT ---------------------------------------
  Minimizer      : DIIS                : direct inversion
                                         in the iterative subspace
                                         using   8 DIIS vectors
                                         safer DIIS on
  Preconditioner : FULL_KINETIC        : inversion of T + eS
  Precond_solver : DEFAULT
  stepsize       :    0.15000000                  energy_gap     :    0.00010000
  eps_taylor     :   0.10000E-15                  max_taylor     :             4
  ----------------------------------- OT ---------------------------------------

  Step     Update method      Time    Convergence         Total energy    Change
  ------------------------------------------------------------------------------
     1 OT DIIS     0.15E+00   17.6     0.00001991     -5897.6590302123 -5.90E+03
     2 OT DIIS     0.15E+00   18.0     0.00001436     -5897.6596614345 -6.31E-04
     3 OT DIIS     0.15E+00   18.0     0.00004080     -5897.6599102076 -2.49E-04
     4 OT DIIS     0.15E+00   18.0     0.00001199     -5897.6602298417 -3.20E-04
     5 OT DIIS     0.15E+00   18.0     0.00001152     -5897.6603778413 -1.48E-04
     6 OT DIIS     0.15E+00   18.1     0.00000765     -5897.6605402956 -1.62E-04
     7 OT DIIS     0.15E+00   18.1     0.00000558     -5897.6606251292 -8.48E-05
     8 OT DIIS     0.15E+00   18.1     0.00000605     -5897.6606917518 -6.66E-05
     9 OT DIIS     0.15E+00   18.1     0.00000634     -5897.6607104461 -1.87E-05
    10 OT DIIS     0.15E+00   18.2     0.00000301     -5897.6607435180 -3.31E-05
    11 OT DIIS     0.15E+00   18.1     0.00000277     -5897.6607711067 -2.76E-05
    12 OT DIIS     0.15E+00   18.1     0.00000335     -5897.6607879878 -1.69E-05
    13 OT DIIS     0.15E+00   18.1     0.00000464     -5897.6607941777 -6.19E-06
    14 OT DIIS     0.15E+00   18.1     0.00000247     -5897.6608077541 -1.36E-05
    15 OT DIIS     0.15E+00   18.1     0.00000222     -5897.6608191123 -1.14E-05
    16 OT DIIS     0.15E+00   18.1     0.00000187     -5897.6608274447 -8.33E-06
    17 OT DIIS     0.15E+00   18.1     0.00000179     -5897.6608367089 -9.26E-06
    18 OT DIIS     0.15E+00   18.1     0.00000238     -5897.6608419721 -5.26E-06
    19 OT DIIS     0.15E+00   18.1     0.00000149     -5897.6608480473 -6.08E-06
    20 OT DIIS     0.15E+00   18.1     0.00000138     -5897.6608571995 -9.15E-06
    21 OT DIIS     0.15E+00   18.1     0.00000150     -5897.6608630947 -5.90E-06
    22 OT DIIS     0.15E+00   18.1     0.00000200     -5897.6608668399 -3.75E-06
    23 OT DIIS     0.15E+00   18.1     0.00000141     -5897.6608709434 -4.10E-06
    24 OT DIIS     0.15E+00   18.1     0.00000129     -5897.6608763734 -5.43E-06
    25 OT DIIS     0.15E+00   18.1     0.00000124     -5897.6608810551 -4.68E-06
    26 OT DIIS     0.15E+00   18.1     0.00000117     -5897.6608868865 -5.83E-06
    27 OT DIIS     0.15E+00   18.1     0.00000152     -5897.6608913543 -4.47E-06
    28 OT DIIS     0.15E+00   18.1     0.00000106     -5897.6608949240 -3.57E-06
    29 OT DIIS     0.15E+00   18.1     0.00000098     -5897.6609016976 -6.77E-06

  *** SCF run converged in    29 steps ***


  Electronic density on regular grids:      -3462.0000000009       -0.0000000009
  Core density on regular grids:             3461.9999999952       -0.0000000048
  Total charge density on r-space grids:       -0.0000000057
  Total charge density g-space grids:          -0.0000000047

  Overlap energy of the core charge distribution:               0.00000032734899
  Self energy of the core charge distribution:             -13940.11712806587093
  Core Hamiltonian energy:                                   3142.86405116894457
  Hartree energy:                                            6201.98408340729748
  Exchange-correlation energy:                              -1299.93773819823900
  Dispersion energy:                                           -2.45417033704704

  Total energy:                                             -5897.66090169756717

  outer SCF iter =    1 RMS gradient =   0.98E-06 energy =      -5897.6609016976
  outer SCF loop converged in   1 iterations or   29 steps


 ENERGY| Total FORCE_EVAL ( QS ) energy (a.u.):            -5897.660906967150368


 --------  Informations at step =     1 ------------
  Optimization Method        =                 BFGS
  Total Energy               =     -5897.6609069672
  Real energy change         =        -0.0034816815
  Predicted change in energy =        -0.0021000845
  Scaling factor             =         0.0000000000
  Step size                  =         0.0746382497
  Trust radius               =         0.4724315332
  Decrease in energy         =                  YES
  Used time                  =              556.383

  Convergence check :
  Max. step size             =         0.0746382497
  Conv. limit for step size  =         0.0030000000
  Convergence in step size   =                   NO
  RMS step size              =         0.0041576946
  Conv. limit for RMS step   =         0.0015000000
  Convergence in RMS step    =                   NO
  Max. gradient              =         0.0103442663
  Conv. limit for gradients  =         0.0004500000
  Conv. for gradients        =                   NO
  RMS gradient               =         0.0005074744
  Conv. limit for RMS grad.  =         0.0003000000
  Conv. for gradients        =                   NO
 ---------------------------------------------------

 --------------------------
 OPTIMIZATION STEP:      2
 --------------------------

 Number of electrons:                                                       3462
 Number of occupied orbitals:                                               1731
 Number of molecular orbitals:                                              1731

 Number of orbital functions:                                               7500
 Number of independent orbital functions:                                   7500

 Extrapolation method: ASPC


 SCF WAVEFUNCTION OPTIMIZATION

  ----------------------------------- OT ---------------------------------------
  Minimizer      : DIIS                : direct inversion
                                         in the iterative subspace
                                         using   8 DIIS vectors
                                         safer DIIS on
  Preconditioner : FULL_KINETIC        : inversion of T + eS
  Precond_solver : DEFAULT
  stepsize       :    0.15000000                  energy_gap     :    0.00010000
  eps_taylor     :   0.10000E-15                  max_taylor     :             4
  ----------------------------------- OT ---------------------------------------

  Step     Update method      Time    Convergence         Total energy    Change
  ------------------------------------------------------------------------------
     1 OT DIIS     0.15E+00   17.5     0.00002289     -5897.6622446825 -5.90E+03
     2 OT DIIS     0.15E+00   18.0     0.00001609     -5897.6630743849 -8.30E-04
     3 OT DIIS     0.15E+00   18.0     0.00002198     -5897.6636083032 -5.34E-04
     4 OT DIIS     0.15E+00   18.0     0.00001430     -5897.6638495993 -2.41E-04
     5 OT DIIS     0.15E+00   18.1     0.00002398     -5897.6639813067 -1.32E-04
     6 OT DIIS     0.15E+00   18.0     0.00001006     -5897.6641782886 -1.97E-04
     7 OT DIIS     0.15E+00   18.1     0.00000622     -5897.6643084971 -1.30E-04
     8 OT DIIS     0.15E+00   18.1     0.00000718     -5897.6643997405 -9.12E-05
     9 OT DIIS     0.15E+00   18.2     0.00000734     -5897.6644278285 -2.81E-05
    10 OT DIIS     0.15E+00   18.2     0.00000419     -5897.6644691013 -4.13E-05
    11 OT DIIS     0.15E+00   18.2     0.00000418     -5897.6644962919 -2.72E-05
    12 OT DIIS     0.15E+00   18.2     0.00000335     -5897.6645239546 -2.77E-05
    13 OT DIIS     0.15E+00   18.2     0.00000396     -5897.6645453514 -2.14E-05
    14 OT DIIS     0.15E+00   18.2     0.00000421     -5897.6645666252 -2.13E-05
    15 OT DIIS     0.15E+00   18.2     0.00000328     -5897.6645772688 -1.06E-05
    16 OT DIIS     0.15E+00   18.2     0.00000245     -5897.6645985343 -2.13E-05
    17 OT DIIS     0.15E+00   18.2     0.00000241     -5897.6646186565 -2.01E-05
    18 OT DIIS     0.15E+00   18.1     0.00000314     -5897.6646302261 -1.16E-05
    19 OT DIIS     0.15E+00   18.1     0.00000221     -5897.6646459328 -1.57E-05
    20 OT DIIS     0.15E+00   18.0     0.00000231     -5897.6646614242 -1.55E-05
    21 OT DIIS     0.15E+00   18.0     0.00000199     -5897.6646750938 -1.37E-05
    22 OT DIIS     0.15E+00   18.2     0.00000214     -5897.6646886114 -1.35E-05
    23 OT DIIS     0.15E+00   18.2     0.00000228     -5897.6646987436 -1.01E-05
    24 OT DIIS     0.15E+00   18.2     0.00000209     -5897.6647046192 -5.88E-06
    25 OT DIIS     0.15E+00   18.2     0.00000167     -5897.6647171744 -1.26E-05
    26 OT DIIS     0.15E+00   18.2     0.00000162     -5897.6647315662 -1.44E-05
    27 OT DIIS     0.15E+00   18.2     0.00000209     -5897.6647409665 -9.40E-06
    28 OT DIIS     0.15E+00   18.2     0.00000151     -5897.6647509368 -9.97E-06
    29 OT DIIS     0.15E+00   18.2     0.00000153     -5897.6647625289 -1.16E-05
    30 OT DIIS     0.15E+00   18.2     0.00000139     -5897.6647713778 -8.85E-06

  Leaving inner SCF loop after reaching    30 steps.


  Electronic density on regular grids:      -3462.0000000009       -0.0000000009
  Core density on regular grids:             3461.9999999953       -0.0000000047
  Total charge density on r-space grids:       -0.0000000057
  Total charge density g-space grids:          -0.0000000049

  Overlap energy of the core charge distribution:               0.00000032643641
  Self energy of the core charge distribution:             -13940.11712806587093
  Core Hamiltonian energy:                                   3142.71031222578586
  Hartree energy:                                            6202.08623970639746
  Exchange-correlation energy:                              -1299.88982958887368
  Dispersion energy:                                           -2.45436598167429

  Total energy:                                             -5897.66477137779930

  outer SCF iter =    1 RMS gradient =   0.14E-05 energy =      -5897.6647713778

  ----------------------------------- OT ---------------------------------------
  Minimizer      : DIIS                : direct inversion
                                         in the iterative subspace
                                         using   8 DIIS vectors
                                         safer DIIS on
  Preconditioner : FULL_KINETIC        : inversion of T + eS
  Precond_solver : DEFAULT
  stepsize       :    0.15000000                  energy_gap     :    0.00010000
  eps_taylor     :   0.10000E-15                  max_taylor     :             4
  ----------------------------------- OT ---------------------------------------

  Step     Update method      Time    Convergence         Total energy    Change
  ------------------------------------------------------------------------------
     1 OT DIIS     0.15E+00   40.6     0.00000146     -5897.6647821498 -1.08E-05
     2 OT DIIS     0.15E+00   17.7     0.00000397     -5897.6647824576 -3.08E-07
     3 OT DIIS     0.15E+00   17.8     0.00000171     -5897.6647850899 -2.63E-06
     4 OT DIIS     0.15E+00   17.8     0.00000114     -5897.6647858516 -7.62E-07
     5 OT DIIS     0.15E+00   17.9     0.00000118     -5897.6647896653 -3.81E-06
     6 OT DIIS     0.15E+00   17.9     0.00000140     -5897.6648030401 -1.34E-05
     7 OT DIIS     0.15E+00   17.9     0.00000087     -5897.6648047505 -1.71E-06

  *** SCF run converged in     7 steps ***


  Electronic density on regular grids:      -3462.0000000004       -0.0000000004
  Core density on regular grids:             3461.9999999953       -0.0000000047
  Total charge density on r-space grids:       -0.0000000051
  Total charge density g-space grids:          -0.0000000042

  Overlap energy of the core charge distribution:               0.00000032643641
  Self energy of the core charge distribution:             -13940.11712806587093
  Core Hamiltonian energy:                                   3142.70937266739384
  Hartree energy:                                            6202.08672712297084
  Exchange-correlation energy:                              -1299.88941081972575
  Dispersion energy:                                           -2.45436598167429

  Total energy:                                             -5897.66480475047047

  outer SCF iter =    2 RMS gradient =   0.87E-06 energy =      -5897.6648047505
  outer SCF loop converged in   2 iterations or   37 steps


 ENERGY| Total FORCE_EVAL ( QS ) energy (a.u.):            -5897.664806078078982


 --------  Informations at step =     2 ------------
  Optimization Method        =                 BFGS
  Total Energy               =     -5897.6648060781
  Real energy change         =        -0.0038991109
  Predicted change in energy =        -0.0031116520
  Scaling factor             =         0.0000000000
  Step size                  =         0.1715921330
  Trust radius               =         0.4724315332
  Decrease in energy         =                  YES
  Used time                  =              705.955

  Convergence check :
  Max. step size             =         0.1715921330
  Conv. limit for step size  =         0.0030000000
  Convergence in step size   =                   NO
  RMS step size              =         0.0091766727
  Conv. limit for RMS step   =         0.0015000000
  Convergence in RMS step    =                   NO
  Max. gradient              =         0.0038820766
  Conv. limit for gradients  =         0.0004500000
  Conv. for gradients        =                   NO
  RMS gradient               =         0.0002608037
  Conv. limit for RMS grad.  =         0.0003000000
  Conv. in RMS gradients     =                  YES
 ---------------------------------------------------

 --------------------------
 OPTIMIZATION STEP:      3
 --------------------------

 Number of electrons:                                                       3462
 Number of occupied orbitals:                                               1731
 Number of molecular orbitals:                                              1731

 Number of orbital functions:                                               7500
 Number of independent orbital functions:                                   7500

 Extrapolation method: ASPC


 SCF WAVEFUNCTION OPTIMIZATION

  ----------------------------------- OT ---------------------------------------
  Minimizer      : DIIS                : direct inversion
                                         in the iterative subspace
                                         using   8 DIIS vectors
                                         safer DIIS on
  Preconditioner : FULL_KINETIC        : inversion of T + eS
  Precond_solver : DEFAULT
  stepsize       :    0.15000000                  energy_gap     :    0.00010000
  eps_taylor     :   0.10000E-15                  max_taylor     :             4
  ----------------------------------- OT ---------------------------------------

  Step     Update method      Time    Convergence         Total energy    Change
  ------------------------------------------------------------------------------
     1 OT DIIS     0.15E+00   17.5     0.00003896     -5897.6587354306 -5.90E+03
     2 OT DIIS     0.15E+00   18.0     0.00002774     -5897.6611813892 -2.45E-03
     3 OT DIIS     0.15E+00   18.0     0.00004309     -5897.6629759409 -1.79E-03
     4 OT DIIS     0.15E+00   18.1     0.00003410     -5897.6635040019 -5.28E-04
     5 OT DIIS     0.15E+00   18.1     0.00003011     -5897.6639523451 -4.48E-04
     6 OT DIIS     0.15E+00   18.2     0.00001449     -5897.6645739440 -6.22E-04
     7 OT DIIS     0.15E+00   18.2     0.00001255     -5897.6649464668 -3.73E-04
     8 OT DIIS     0.15E+00   18.2     0.00002054     -5897.6650562854 -1.10E-04
     9 OT DIIS     0.15E+00   18.5     0.00000765     -5897.6652456931 -1.89E-04
    10 OT DIIS     0.15E+00   19.3     0.00000624     -5897.6653429193 -9.72E-05
    11 OT DIIS     0.15E+00   18.2     0.00000692     -5897.6654008330 -5.79E-05
    12 OT DIIS     0.15E+00   18.2     0.00000497     -5897.6654586456 -5.78E-05
    13 OT DIIS     0.15E+00   18.2     0.00000857     -5897.6654837371 -2.51E-05
    14 OT DIIS     0.15E+00   18.1     0.00000572     -5897.6655216566 -3.79E-05
    15 OT DIIS     0.15E+00   18.2     0.00000402     -5897.6655464029 -2.47E-05
    16 OT DIIS     0.15E+00   18.1     0.00000312     -5897.6655757951 -2.94E-05
    17 OT DIIS     0.15E+00   18.2     0.00000468     -5897.6655921133 -1.63E-05
    18 OT DIIS     0.15E+00   18.2     0.00000279     -5897.6656068847 -1.48E-05
    19 OT DIIS     0.15E+00   18.2     0.00000243     -5897.6656237457 -1.69E-05
    20 OT DIIS     0.15E+00   18.1     0.00000278     -5897.6656385018 -1.48E-05
    21 OT DIIS     0.15E+00   18.0     0.00000213     -5897.6656478024 -9.30E-06
    22 OT DIIS     0.15E+00   18.2     0.00000320     -5897.6656556070 -7.80E-06
    23 OT DIIS     0.15E+00   18.1     0.00000233     -5897.6656622901 -6.68E-06
    24 OT DIIS     0.15E+00   18.1     0.00000193     -5897.6656675276 -5.24E-06
    25 OT DIIS     0.15E+00   18.1     0.00000163     -5897.6656750615 -7.53E-06
    26 OT DIIS     0.15E+00   18.1     0.00000229     -5897.6656821779 -7.12E-06
    27 OT DIIS     0.15E+00   18.1     0.00000157     -5897.6656864502 -4.27E-06
    28 OT DIIS     0.15E+00   18.2     0.00000135     -5897.6656934317 -6.98E-06
    29 OT DIIS     0.15E+00   18.2     0.00000145     -5897.6657002531 -6.82E-06
    30 OT DIIS     0.15E+00   18.2     0.00000126     -5897.6657040926 -3.84E-06

  Leaving inner SCF loop after reaching    30 steps.


  Electronic density on regular grids:      -3462.0000000026       -0.0000000026
  Core density on regular grids:             3461.9999999952       -0.0000000048
  Total charge density on r-space grids:       -0.0000000074
  Total charge density g-space grids:          -0.0000000063

  Overlap energy of the core charge distribution:               0.00000032651332
  Self energy of the core charge distribution:             -13940.11712806587093
  Core Hamiltonian energy:                                   3142.68255988124838
  Hartree energy:                                            6202.10457020190370
  Exchange-correlation energy:                              -1299.88117617045259
  Dispersion energy:                                           -2.45453026594683

  Total energy:                                             -5897.66570409260476

  outer SCF iter =    1 RMS gradient =   0.13E-05 energy =      -5897.6657040926

  ----------------------------------- OT ---------------------------------------
  Minimizer      : DIIS                : direct inversion
                                         in the iterative subspace
                                         using   8 DIIS vectors
                                         safer DIIS on
  Preconditioner : FULL_KINETIC        : inversion of T + eS
  Precond_solver : DEFAULT
  stepsize       :    0.15000000                  energy_gap     :    0.00010000
  eps_taylor     :   0.10000E-15                  max_taylor     :             4
  ----------------------------------- OT ---------------------------------------

  Step     Update method      Time    Convergence         Total energy    Change
  ------------------------------------------------------------------------------
     1 OT DIIS     0.15E+00   40.6     0.00000173     -5897.6657093392 -5.25E-06
     2 OT DIIS     0.15E+00   17.8     0.00000883     -5897.6657017429  7.60E-06
     3 OT DIIS     0.15E+00   17.8     0.00000131     -5897.6657117713 -1.00E-05
     4 OT DIIS     0.15E+00   17.8     0.00000100     -5897.6657124464 -6.75E-07
     5 OT DIIS     0.15E+00   17.8     0.00000113     -5897.6657158270 -3.38E-06
     6 OT DIIS     0.15E+00   17.9     0.00000204     -5897.6657224205 -6.59E-06
     7 OT DIIS     0.15E+00   17.9     0.00000066     -5897.6657262562 -3.84E-06

  *** SCF run converged in     7 steps ***


  Electronic density on regular grids:      -3462.0000000004       -0.0000000004
  Core density on regular grids:             3461.9999999952       -0.0000000048
  Total charge density on r-space grids:       -0.0000000052
  Total charge density g-space grids:          -0.0000000042

  Overlap energy of the core charge distribution:               0.00000032651332
  Self energy of the core charge distribution:             -13940.11712806587093
  Core Hamiltonian energy:                                   3142.68330599209139
  Hartree energy:                                            6202.10421426266839
  Exchange-correlation energy:                              -1299.88158850565651
  Dispersion energy:                                           -2.45453026594683

  Total energy:                                             -5897.66572625620029

  outer SCF iter =    2 RMS gradient =   0.66E-06 energy =      -5897.6657262562
  outer SCF loop converged in   2 iterations or   37 steps


 ENERGY| Total FORCE_EVAL ( QS ) energy (a.u.):            -5897.665727335247539


 --------  Informations at step =     3 ------------
  Optimization Method        =                 BFGS
  Total Energy               =     -5897.6657273352
  Real energy change         =        -0.0009212572
  Predicted change in energy =        -0.0005702804
  Scaling factor             =         0.0000000000
  Step size                  =         0.0704750048
  Trust radius               =         0.4724315332
  Decrease in energy         =                  YES
  Used time                  =              707.990

  Convergence check :
  Max. step size             =         0.0704750048
  Conv. limit for step size  =         0.0030000000
  Convergence in step size   =                   NO
  RMS step size              =         0.0040898615
  Conv. limit for RMS step   =         0.0015000000
  Convergence in RMS step    =                   NO
  Max. gradient              =         0.0028144898
  Conv. limit for gradients  =         0.0004500000
  Conv. for gradients        =                   NO
  RMS gradient               =         0.0002224474
  Conv. limit for RMS grad.  =         0.0003000000
  Conv. in RMS gradients     =                  YES
 ---------------------------------------------------

 --------------------------
 OPTIMIZATION STEP:      4
 --------------------------

 Number of electrons:                                                       3462
 Number of occupied orbitals:                                               1731
 Number of molecular orbitals:                                              1731

 Number of orbital functions:                                               7500
 Number of independent orbital functions:                                   7500

 Extrapolation method: ASPC


 SCF WAVEFUNCTION OPTIMIZATION

  ----------------------------------- OT ---------------------------------------
  Minimizer      : DIIS                : direct inversion
                                         in the iterative subspace
                                         using   8 DIIS vectors
                                         safer DIIS on
  Preconditioner : FULL_KINETIC        : inversion of T + eS
  Precond_solver : DEFAULT
  stepsize       :    0.15000000                  energy_gap     :    0.00010000
  eps_taylor     :   0.10000E-15                  max_taylor     :             4
  ----------------------------------- OT ---------------------------------------

  Step     Update method      Time    Convergence         Total energy    Change
  ------------------------------------------------------------------------------
     1 OT DIIS     0.15E+00   17.5     0.00002939     -5897.6624178813 -5.90E+03
     2 OT DIIS     0.15E+00   18.0     0.00002132     -5897.6638192969 -1.40E-03
     3 OT DIIS     0.15E+00   18.1     0.00003820     -5897.6647872555 -9.68E-04
     4 OT DIIS     0.15E+00   18.1     0.00002483     -5897.6652176010 -4.30E-04
     5 OT DIIS     0.15E+00   18.1     0.00002121     -5897.6654370949 -2.19E-04
     6 OT DIIS     0.15E+00   18.1     0.00001024     -5897.6658303289 -3.93E-04
     7 OT DIIS     0.15E+00   18.1     0.00001368     -5897.6660205439 -1.90E-04
     8 OT DIIS     0.15E+00   18.1     0.00001057     -5897.6660865592 -6.60E-05
     9 OT DIIS     0.15E+00   18.1     0.00000552     -5897.6661967196 -1.10E-04
    10 OT DIIS     0.15E+00   18.1     0.00000494     -5897.6662448607 -4.81E-05
    11 OT DIIS     0.15E+00   18.1     0.00000466     -5897.6662818522 -3.70E-05
    12 OT DIIS     0.15E+00   18.2     0.00000394     -5897.6663186946 -3.68E-05
    13 OT DIIS     0.15E+00   18.1     0.00000634     -5897.6663304160 -1.17E-05
    14 OT DIIS     0.15E+00   18.1     0.00000464     -5897.6663544921 -2.41E-05
    15 OT DIIS     0.15E+00   18.1     0.00000284     -5897.6663707375 -1.62E-05
    16 OT DIIS     0.15E+00   18.1     0.00000281     -5897.6663888116 -1.81E-05
    17 OT DIIS     0.15E+00   18.1     0.00000315     -5897.6663952874 -6.48E-06
    18 OT DIIS     0.15E+00   18.1     0.00000199     -5897.6664082115 -1.29E-05
    19 OT DIIS     0.15E+00   18.1     0.00000195     -5897.6664176374 -9.43E-06
    20 OT DIIS     0.15E+00   18.1     0.00000196     -5897.6664262315 -8.59E-06
    21 OT DIIS     0.15E+00   18.0     0.00000163     -5897.6664329221 -6.69E-06
    22 OT DIIS     0.15E+00   18.1     0.00000242     -5897.6664368685 -3.95E-06
    23 OT DIIS     0.15E+00   18.1     0.00000186     -5897.6664414816 -4.61E-06
    24 OT DIIS     0.15E+00   18.1     0.00000144     -5897.6664445899 -3.11E-06
    25 OT DIIS     0.15E+00   18.1     0.00000138     -5897.6664498137 -5.22E-06
    26 OT DIIS     0.15E+00   18.1     0.00000171     -5897.6664526241 -2.81E-06
    27 OT DIIS     0.15E+00   18.1     0.00000116     -5897.6664570662 -4.44E-06
    28 OT DIIS     0.15E+00   18.1     0.00000111     -5897.6664613411 -4.27E-06
    29 OT DIIS     0.15E+00   18.1     0.00000112     -5897.6664654876 -4.15E-06
    30 OT DIIS     0.15E+00   18.1     0.00000102     -5897.6664689691 -3.48E-06

  Leaving inner SCF loop after reaching    30 steps.


  Electronic density on regular grids:      -3462.0000000005       -0.0000000005
  Core density on regular grids:             3461.9999999952       -0.0000000048
  Total charge density on r-space grids:       -0.0000000053
  Total charge density g-space grids:          -0.0000000044

  Overlap energy of the core charge distribution:               0.00000032717786
  Self energy of the core charge distribution:             -13940.11712806587093
  Core Hamiltonian energy:                                   3142.69596313381271
  Hartree energy:                                            6202.09627491600804
  Exchange-correlation energy:                              -1299.88684769649944
  Dispersion energy:                                           -2.45473158374119

  Total energy:                                             -5897.66646896911334

  outer SCF iter =    1 RMS gradient =   0.10E-05 energy =      -5897.6664689691

  ----------------------------------- OT ---------------------------------------
  Minimizer      : DIIS                : direct inversion
                                         in the iterative subspace
                                         using   8 DIIS vectors
                                         safer DIIS on
  Preconditioner : FULL_KINETIC        : inversion of T + eS
  Precond_solver : DEFAULT
  stepsize       :    0.15000000                  energy_gap     :    0.00010000
  eps_taylor     :   0.10000E-15                  max_taylor     :             4
  ----------------------------------- OT ---------------------------------------

  Step     Update method      Time    Convergence         Total energy    Change
  ------------------------------------------------------------------------------
     1 OT DIIS     0.15E+00   40.5     0.00000141     -5897.6664724050 -3.44E-06
     2 OT DIIS     0.15E+00   17.7     0.00000697     -5897.6664678646  4.54E-06
     3 OT DIIS     0.15E+00   17.8     0.00000111     -5897.6664741825 -6.32E-06
     4 OT DIIS     0.15E+00   17.8     0.00000086     -5897.6664746446 -4.62E-07

  *** SCF run converged in     4 steps ***


  Electronic density on regular grids:      -3462.0000000002       -0.0000000002
  Core density on regular grids:             3461.9999999952       -0.0000000048
  Total charge density on r-space grids:       -0.0000000050
  Total charge density g-space grids:          -0.0000000041

  Overlap energy of the core charge distribution:               0.00000032717786
  Self energy of the core charge distribution:             -13940.11712806587093
  Core Hamiltonian energy:                                   3142.69578231725291
  Hartree energy:                                            6202.09638341999653
  Exchange-correlation energy:                              -1299.88678105941676
  Dispersion energy:                                           -2.45473158374119

  Total energy:                                             -5897.66647464460038

  outer SCF iter =    2 RMS gradient =   0.86E-06 energy =      -5897.6664746446
  outer SCF loop converged in   2 iterations or   34 steps


 ENERGY| Total FORCE_EVAL ( QS ) energy (a.u.):            -5897.666477555491838


 --------  Informations at step =     4 ------------
  Optimization Method        =                 BFGS
  Total Energy               =     -5897.6664775555
  Real energy change         =        -0.0007502202
  Predicted change in energy =        -0.0007045057
  Scaling factor             =         0.0000000000
  Step size                  =         0.0953360669
  Trust radius               =         0.4724315332
  Decrease in energy         =                  YES
  Used time                  =              652.611

  Convergence check :
  Max. step size             =         0.0953360669
  Conv. limit for step size  =         0.0030000000
  Convergence in step size   =                   NO
  RMS step size              =         0.0063880274
  Conv. limit for RMS step   =         0.0015000000
  Convergence in RMS step    =                   NO
  Max. gradient              =         0.0022559469
  Conv. limit for gradients  =         0.0004500000
  Conv. for gradients        =                   NO
  RMS gradient               =         0.0001609889
  Conv. limit for RMS grad.  =         0.0003000000
  Conv. in RMS gradients     =                  YES
 ---------------------------------------------------

 --------------------------
 OPTIMIZATION STEP:      5
 --------------------------

 Number of electrons:                                                       3462
 Number of occupied orbitals:                                               1731
 Number of molecular orbitals:                                              1731

 Number of orbital functions:                                               7500
 Number of independent orbital functions:                                   7500

 Extrapolation method: ASPC


 SCF WAVEFUNCTION OPTIMIZATION

  ----------------------------------- OT ---------------------------------------
  Minimizer      : DIIS                : direct inversion
                                         in the iterative subspace
                                         using   8 DIIS vectors
                                         safer DIIS on
  Preconditioner : FULL_KINETIC        : inversion of T + eS
  Precond_solver : DEFAULT
  stepsize       :    0.15000000                  energy_gap     :    0.00010000
  eps_taylor     :   0.10000E-15                  max_taylor     :             4
  ----------------------------------- OT ---------------------------------------

  Step     Update method      Time    Convergence         Total energy    Change
  ------------------------------------------------------------------------------
     1 OT DIIS     0.15E+00   17.5     0.00003463     -5897.6613420671 -5.90E+03
     2 OT DIIS     0.15E+00   18.0     0.00003017     -5897.6632341515 -1.89E-03
     3 OT DIIS     0.15E+00   18.0     0.00008404     -5897.6632199515  1.42E-05
     4 OT DIIS     0.15E+00   18.0     0.00002166     -5897.6650772056 -1.86E-03
     5 OT DIIS     0.15E+00   18.0     0.00002237     -5897.6654633459 -3.86E-04
     6 OT DIIS     0.15E+00   18.1     0.00002536     -5897.6658310918 -3.68E-04
     7 OT DIIS     0.15E+00   18.0     0.00002063     -5897.6660931551 -2.62E-04
     8 OT DIIS     0.15E+00   18.0     0.00000851     -5897.6663365684 -2.43E-04
     9 OT DIIS     0.15E+00   18.1     0.00000617     -5897.6665197528 -1.83E-04
    10 OT DIIS     0.15E+00   18.1     0.00000590     -5897.6666009991 -8.12E-05
    11 OT DIIS     0.15E+00   18.1     0.00000594     -5897.6666388590 -3.79E-05
    12 OT DIIS     0.15E+00   18.1     0.00000621     -5897.6666917852 -5.29E-05
    13 OT DIIS     0.15E+00   18.1     0.00000708     -5897.6666978855 -6.10E-06
    14 OT DIIS     0.15E+00   18.1     0.00000399     -5897.6667324656 -3.46E-05
    15 OT DIIS     0.15E+00   18.1     0.00000495     -5897.6667502829 -1.78E-05
    16 OT DIIS     0.15E+00   18.1     0.00000432     -5897.6667621306 -1.18E-05
    17 OT DIIS     0.15E+00   18.1     0.00000247     -5897.6667716894 -9.56E-06
    18 OT DIIS     0.15E+00   18.1     0.00000182     -5897.6667841912 -1.25E-05
    19 OT DIIS     0.15E+00   18.0     0.00000176     -5897.6667925467 -8.36E-06
    20 OT DIIS     0.15E+00   18.0     0.00000203     -5897.6667976376 -5.09E-06
    21 OT DIIS     0.15E+00   17.9     0.00000178     -5897.6668018995 -4.26E-06
    22 OT DIIS     0.15E+00   18.1     0.00000244     -5897.6668029583 -1.06E-06
    23 OT DIIS     0.15E+00   18.1     0.00000135     -5897.6668061603 -3.20E-06
    24 OT DIIS     0.15E+00   18.0     0.00000164     -5897.6668081278 -1.97E-06
    25 OT DIIS     0.15E+00   18.0     0.00000152     -5897.6668094633 -1.34E-06
    26 OT DIIS     0.15E+00   18.0     0.00000111     -5897.6668107269 -1.26E-06
    27 OT DIIS     0.15E+00   18.1     0.00000086     -5897.6668130033 -2.28E-06

  *** SCF run converged in    27 steps ***


  Electronic density on regular grids:      -3462.0000000005       -0.0000000005
  Core density on regular grids:             3461.9999999952       -0.0000000048
  Total charge density on r-space grids:       -0.0000000053
  Total charge density g-space grids:          -0.0000000043

  Overlap energy of the core charge distribution:               0.00000032752174
  Self energy of the core charge distribution:             -13940.11712806587093
  Core Hamiltonian energy:                                   3142.71769462696102
  Hartree energy:                                            6202.08153268480237
  Exchange-correlation energy:                              -1299.89407311052673
  Dispersion energy:                                           -2.45483946622523

  Total energy:                                             -5897.66681300333767

  outer SCF iter =    1 RMS gradient =   0.86E-06 energy =      -5897.6668130033
  outer SCF loop converged in   1 iterations or   27 steps


 ENERGY| Total FORCE_EVAL ( QS ) energy (a.u.):            -5897.666814846837951


 --------  Informations at step =     5 ------------
  Optimization Method        =                 BFGS
  Total Energy               =     -5897.6668148468
  Real energy change         =        -0.0003372913
  Predicted change in energy =        -0.0001967774
  Scaling factor             =         0.0000000000
  Step size                  =         0.0370486991
  Trust radius               =         0.4724315332
  Decrease in energy         =                  YES
  Used time                  =              522.578

  Convergence check :
  Max. step size             =         0.0370486991
  Conv. limit for step size  =         0.0030000000
  Convergence in step size   =                   NO
  RMS step size              =         0.0025280479
  Conv. limit for RMS step   =         0.0015000000
  Convergence in RMS step    =                   NO
  Max. gradient              =         0.0030610596
  Conv. limit for gradients  =         0.0004500000
  Conv. for gradients        =                   NO
  RMS gradient               =         0.0001666897
  Conv. limit for RMS grad.  =         0.0003000000
  Conv. in RMS gradients     =                  YES
 ---------------------------------------------------

 --------------------------
 OPTIMIZATION STEP:      6
 --------------------------

 Number of electrons:                                                       3462
 Number of occupied orbitals:                                               1731
 Number of molecular orbitals:                                              1731

 Number of orbital functions:                                               7500
 Number of independent orbital functions:                                   7500

 Extrapolation method: ASPC


 SCF WAVEFUNCTION OPTIMIZATION

  ----------------------------------- OT ---------------------------------------
  Minimizer      : DIIS                : direct inversion
                                         in the iterative subspace
                                         using   8 DIIS vectors
                                         safer DIIS on
  Preconditioner : FULL_KINETIC        : inversion of T + eS
  Precond_solver : DEFAULT
  stepsize       :    0.15000000                  energy_gap     :    0.00010000
  eps_taylor     :   0.10000E-15                  max_taylor     :             4
  ----------------------------------- OT ---------------------------------------

  Step     Update method      Time    Convergence         Total energy    Change
  ------------------------------------------------------------------------------
     1 OT DIIS     0.15E+00   17.5     0.00002866     -5897.6636145892 -5.90E+03
     2 OT DIIS     0.15E+00   18.0     0.00002835     -5897.6649015803 -1.29E-03
     3 OT DIIS     0.15E+00   18.0     0.00005823     -5897.6649691981 -6.76E-05
     4 OT DIIS     0.15E+00   18.0     0.00001943     -5897.6662786943 -1.31E-03
     5 OT DIIS     0.15E+00   18.1     0.00001736     -5897.6666263876 -3.48E-04
     6 OT DIIS     0.15E+00   18.1     0.00002071     -5897.6668814618 -2.55E-04
     7 OT DIIS     0.15E+00   18.1     0.00001905     -5897.6670836816 -2.02E-04
     8 OT DIIS     0.15E+00   18.1     0.00000713     -5897.6672562291 -1.73E-04
     9 OT DIIS     0.15E+00   18.1     0.00000526     -5897.6673892599 -1.33E-04
    10 OT DIIS     0.15E+00   18.1     0.00000415     -5897.6674510660 -6.18E-05
    11 OT DIIS     0.15E+00   18.1     0.00000370     -5897.6674929283 -4.19E-05
    12 OT DIIS     0.15E+00   18.1     0.00000494     -5897.6675224027 -2.95E-05
    13 OT DIIS     0.15E+00   18.1     0.00000563     -5897.6675308090 -8.41E-06
    14 OT DIIS     0.15E+00   18.1     0.00000332     -5897.6675456005 -1.48E-05
    15 OT DIIS     0.15E+00   18.1     0.00000378     -5897.6675601957 -1.46E-05
    16 OT DIIS     0.15E+00   18.1     0.00000349     -5897.6675654601 -5.26E-06
    17 OT DIIS     0.15E+00   18.1     0.00000218     -5897.6675701371 -4.68E-06
    18 OT DIIS     0.15E+00   18.1     0.00000145     -5897.6675777451 -7.61E-06
    19 OT DIIS     0.15E+00   18.1     0.00000126     -5897.6675824344 -4.69E-06
    20 OT DIIS     0.15E+00   18.1     0.00000115     -5897.6675865564 -4.12E-06
    21 OT DIIS     0.15E+00   17.9     0.00000130     -5897.6675890807 -2.52E-06
    22 OT DIIS     0.15E+00   18.1     0.00000167     -5897.6675901664 -1.09E-06
    23 OT DIIS     0.15E+00   18.1     0.00000116     -5897.6675918262 -1.66E-06
    24 OT DIIS     0.15E+00   18.1     0.00000117     -5897.6675936410 -1.81E-06
    25 OT DIIS     0.15E+00   18.1     0.00000127     -5897.6675944155 -7.75E-07
    26 OT DIIS     0.15E+00   18.1     0.00000098     -5897.6675954408 -1.03E-06

  *** SCF run converged in    26 steps ***


  Electronic density on regular grids:      -3462.0000000006       -0.0000000006
  Core density on regular grids:             3461.9999999952       -0.0000000048
  Total charge density on r-space grids:       -0.0000000054
  Total charge density g-space grids:          -0.0000000044

  Overlap energy of the core charge distribution:               0.00000032811861
  Self energy of the core charge distribution:             -13940.11712806587093
  Core Hamiltonian energy:                                   3142.77822709456677
  Hartree energy:                                            6202.04128554553790
  Exchange-correlation energy:                              -1299.91474271064271
  Dispersion energy:                                           -2.45523763247058

  Total energy:                                             -5897.66759544076194

  outer SCF iter =    1 RMS gradient =   0.98E-06 energy =      -5897.6675954408
  outer SCF loop converged in   1 iterations or   26 steps


 ENERGY| Total FORCE_EVAL ( QS ) energy (a.u.):            -5897.667597168340762


 --------  Informations at step =     6 ------------
  Optimization Method        =                 BFGS
  Total Energy               =     -5897.6675971683
  Real energy change         =        -0.0007823215
  Predicted change in energy =        -0.0005208482
  Scaling factor             =         0.0000000000
  Step size                  =         0.1004661006
  Trust radius               =         0.4724315332
  Decrease in energy         =                  YES
  Used time                  =              506.647

  Convergence check :
  Max. step size             =         0.1004661006
  Conv. limit for step size  =         0.0030000000
  Convergence in step size   =                   NO
  RMS step size              =         0.0067014503
  Conv. limit for RMS step   =         0.0015000000
  Convergence in RMS step    =                   NO
  Max. gradient              =         0.0051819663
  Conv. limit for gradients  =         0.0004500000
  Conv. for gradients        =                   NO
  RMS gradient               =         0.0002695882
  Conv. limit for RMS grad.  =         0.0003000000
  Conv. in RMS gradients     =                  YES
 ---------------------------------------------------

 --------------------------
 OPTIMIZATION STEP:      7
 --------------------------

 Number of electrons:                                                       3462
 Number of occupied orbitals:                                               1731
 Number of molecular orbitals:                                              1731

 Number of orbital functions:                                               7500
 Number of independent orbital functions:                                   7500

 Extrapolation method: ASPC


 SCF WAVEFUNCTION OPTIMIZATION

  ----------------------------------- OT ---------------------------------------
  Minimizer      : DIIS                : direct inversion
                                         in the iterative subspace
                                         using   8 DIIS vectors
                                         safer DIIS on
  Preconditioner : FULL_KINETIC        : inversion of T + eS
  Precond_solver : DEFAULT
  stepsize       :    0.15000000                  energy_gap     :    0.00010000
  eps_taylor     :   0.10000E-15                  max_taylor     :             4
  ----------------------------------- OT ---------------------------------------

  Step     Update method      Time    Convergence         Total energy    Change
  ------------------------------------------------------------------------------
     1 OT DIIS     0.15E+00   17.5     0.00002481     -5897.6648955990 -5.90E+03
     2 OT DIIS     0.15E+00   18.1     0.00002043     -5897.6658851051 -9.90E-04
     3 OT DIIS     0.15E+00   18.1     0.00005925     -5897.6659892761 -1.04E-04
     4 OT DIIS     0.15E+00   18.1     0.00001477     -5897.6668977395 -9.08E-04
     5 OT DIIS     0.15E+00   18.1     0.00001338     -5897.6671789219 -2.81E-04
     6 OT DIIS     0.15E+00   18.2     0.00002133     -5897.6673455569 -1.67E-04
     7 OT DIIS     0.15E+00   18.2     0.00001143     -5897.6675183365 -1.73E-04
     8 OT DIIS     0.15E+00   18.1     0.00000744     -5897.6675995970 -8.13E-05
     9 OT DIIS     0.15E+00   18.2     0.00000459     -5897.6676920896 -9.25E-05
    10 OT DIIS     0.15E+00   18.2     0.00000363     -5897.6677409955 -4.89E-05
    11 OT DIIS     0.15E+00   18.2     0.00000386     -5897.6677685804 -2.76E-05
    12 OT DIIS     0.15E+00   18.2     0.00000419     -5897.6677902153 -2.16E-05
    13 OT DIIS     0.15E+00   18.2     0.00000526     -5897.6677960788 -5.86E-06
    14 OT DIIS     0.15E+00   18.2     0.00000258     -5897.6678095929 -1.35E-05
    15 OT DIIS     0.15E+00   18.2     0.00000368     -5897.6678231528 -1.36E-05
    16 OT DIIS     0.15E+00   18.2     0.00000251     -5897.6678273648 -4.21E-06
    17 OT DIIS     0.15E+00   18.2     0.00000209     -5897.6678325803 -5.22E-06
    18 OT DIIS     0.15E+00   18.2     0.00000148     -5897.6678400093 -7.43E-06
    19 OT DIIS     0.15E+00   18.2     0.00000136     -5897.6678457172 -5.71E-06
    20 OT DIIS     0.15E+00   18.2     0.00000136     -5897.6678512949 -5.58E-06
    21 OT DIIS     0.15E+00   18.0     0.00000146     -5897.6678543953 -3.10E-06
    22 OT DIIS     0.15E+00   18.2     0.00000184     -5897.6678562963 -1.90E-06
    23 OT DIIS     0.15E+00   18.2     0.00000120     -5897.6678585845 -2.29E-06
    24 OT DIIS     0.15E+00   18.2     0.00000134     -5897.6678623949 -3.81E-06
    25 OT DIIS     0.15E+00   18.2     0.00000123     -5897.6678632731 -8.78E-07
    26 OT DIIS     0.15E+00   18.2     0.00000111     -5897.6678657073 -2.43E-06
    27 OT DIIS     0.15E+00   18.2     0.00000092     -5897.6678687677 -3.06E-06

  *** SCF run converged in    27 steps ***


  Electronic density on regular grids:      -3461.9999999997        0.0000000003
  Core density on regular grids:             3461.9999999952       -0.0000000048
  Total charge density on r-space grids:       -0.0000000045
  Total charge density g-space grids:          -0.0000000036

  Overlap energy of the core charge distribution:               0.00000032829723
  Self energy of the core charge distribution:             -13940.11712806587093
  Core Hamiltonian energy:                                   3142.79319312284088
  Hartree energy:                                            6202.03167881763056
  Exchange-correlation energy:                              -1299.92007512996361
  Dispersion energy:                                           -2.45553784066737

  Total energy:                                             -5897.66786876773403

  outer SCF iter =    1 RMS gradient =   0.92E-06 energy =      -5897.6678687677
  outer SCF loop converged in   1 iterations or   27 steps


 ENERGY| Total FORCE_EVAL ( QS ) energy (a.u.):            -5897.667871875908531


 --------  Informations at step =     7 ------------
  Optimization Method        =                 BFGS
  Total Energy               =     -5897.6678718759
  Real energy change         =        -0.0002747076
  Predicted change in energy =        -0.0003719312
  Scaling factor             =         0.0000000000
  Step size                  =         0.1038814229
  Trust radius               =         0.4724315332
  Decrease in energy         =                  YES
  Used time                  =              527.940

  Convergence check :
  Max. step size             =         0.1038814229
  Conv. limit for step size  =         0.0030000000
  Convergence in step size   =                   NO
  RMS step size              =         0.0057123876
  Conv. limit for RMS step   =         0.0015000000
  Convergence in RMS step    =                   NO
  Max. gradient              =         0.0052521378
  Conv. limit for gradients  =         0.0004500000
  Conv. for gradients        =                   NO
  RMS gradient               =         0.0003272209
  Conv. limit for RMS grad.  =         0.0003000000
  Conv. for gradients        =                   NO
 ---------------------------------------------------

 --------------------------
 OPTIMIZATION STEP:      8
 --------------------------

 Number of electrons:                                                       3462
 Number of occupied orbitals:                                               1731
 Number of molecular orbitals:                                              1731

 Number of orbital functions:                                               7500
 Number of independent orbital functions:                                   7500

 Extrapolation method: ASPC


 SCF WAVEFUNCTION OPTIMIZATION

  ----------------------------------- OT ---------------------------------------
  Minimizer      : DIIS                : direct inversion
                                         in the iterative subspace
                                         using   8 DIIS vectors
                                         safer DIIS on
  Preconditioner : FULL_KINETIC        : inversion of T + eS
  Precond_solver : DEFAULT
  stepsize       :    0.15000000                  energy_gap     :    0.00010000
  eps_taylor     :   0.10000E-15                  max_taylor     :             4
  ----------------------------------- OT ---------------------------------------

  Step     Update method      Time    Convergence         Total energy    Change
  ------------------------------------------------------------------------------
     1 OT DIIS     0.15E+00   17.6     0.00002247     -5897.6673815489 -5.90E+03
     2 OT DIIS     0.15E+00   18.1     0.00001670     -5897.6682086902 -8.27E-04
     3 OT DIIS     0.15E+00   18.1     0.00003221     -5897.6688011640 -5.92E-04
     4 OT DIIS     0.15E+00   18.2     0.00001885     -5897.6690686709 -2.68E-04
     5 OT DIIS     0.15E+00   18.1     0.00001129     -5897.6693232347 -2.55E-04
     6 OT DIIS     0.15E+00   18.2     0.00001130     -5897.6694956805 -1.72E-04
     7 OT DIIS     0.15E+00   18.2     0.00000615     -5897.6696166841 -1.21E-04
     8 OT DIIS     0.15E+00   18.2     0.00000947     -5897.6696822049 -6.55E-05
     9 OT DIIS     0.15E+00   18.2     0.00000615     -5897.6697158573 -3.37E-05
    10 OT DIIS     0.15E+00   18.2     0.00000302     -5897.6697555592 -3.97E-05
    11 OT DIIS     0.15E+00   18.2     0.00000273     -5897.6697792908 -2.37E-05
    12 OT DIIS     0.15E+00   18.2     0.00000288     -5897.6697957637 -1.65E-05
    13 OT DIIS     0.15E+00   18.2     0.00000434     -5897.6698005839 -4.82E-06
    14 OT DIIS     0.15E+00   18.2     0.00000281     -5897.6698095752 -8.99E-06
    15 OT DIIS     0.15E+00   18.2     0.00000197     -5897.6698183233 -8.75E-06
    16 OT DIIS     0.15E+00   18.1     0.00000179     -5897.6698221580 -3.83E-06
    17 OT DIIS     0.15E+00   18.2     0.00000163     -5897.6698270041 -4.85E-06
    18 OT DIIS     0.15E+00   18.2     0.00000195     -5897.6698295778 -2.57E-06
    19 OT DIIS     0.15E+00   18.2     0.00000117     -5897.6698327767 -3.20E-06
    20 OT DIIS     0.15E+00   18.2     0.00000106     -5897.6698366515 -3.87E-06
    21 OT DIIS     0.15E+00   18.1     0.00000103     -5897.6698395344 -2.88E-06
    22 OT DIIS     0.15E+00   18.2     0.00000146     -5897.6698411555 -1.62E-06
    23 OT DIIS     0.15E+00   18.2     0.00000109     -5897.6698429386 -1.78E-06
    24 OT DIIS     0.15E+00   18.2     0.00000093     -5897.6698448818 -1.94E-06

  *** SCF run converged in    24 steps ***


  Electronic density on regular grids:      -3461.9999999998        0.0000000002
  Core density on regular grids:             3461.9999999952       -0.0000000048
  Total charge density on r-space grids:       -0.0000000046
  Total charge density g-space grids:          -0.0000000037

  Overlap energy of the core charge distribution:               0.00000032784036
  Self energy of the core charge distribution:             -13940.11712806587093
  Core Hamiltonian energy:                                   3142.77256244100954
  Hartree energy:                                            6202.04636258820210
  Exchange-correlation energy:                              -1299.91565779122129
  Dispersion energy:                                           -2.45598438171410

  Total energy:                                             -5897.66984488175422

  outer SCF iter =    1 RMS gradient =   0.93E-06 energy =      -5897.6698448818
  outer SCF loop converged in   1 iterations or   24 steps


 ENERGY| Total FORCE_EVAL ( QS ) energy (a.u.):            -5897.669846459631117


 --------  Informations at step =     8 ------------
  Optimization Method        =                 BFGS
  Total Energy               =     -5897.6698464596
  Real energy change         =        -0.0019745837
  Predicted change in energy =        -0.0009592810
  Scaling factor             =         0.0000000000
  Step size                  =         0.1919378034
  Trust radius               =         0.4724315332
  Decrease in energy         =                  YES
  Used time                  =              472.354

  Convergence check :
  Max. step size             =         0.1919378034
  Conv. limit for step size  =         0.0030000000
  Convergence in step size   =                   NO
  RMS step size              =         0.0106299395
  Conv. limit for RMS step   =         0.0015000000
  Convergence in RMS step    =                   NO
  Max. gradient              =         0.0052085469
  Conv. limit for gradients  =         0.0004500000
  Conv. for gradients        =                   NO
  RMS gradient               =         0.0003339238
  Conv. limit for RMS grad.  =         0.0003000000
  Conv. for gradients        =                   NO
 ---------------------------------------------------

 --------------------------
 OPTIMIZATION STEP:      9
 --------------------------

  Step is scaled; Scaling factor =  0.12512

 Number of electrons:                                                       3462
 Number of occupied orbitals:                                               1731
 Number of molecular orbitals:                                              1731

 Number of orbital functions:                                               7500
 Number of independent orbital functions:                                   7500

 Extrapolation method: ASPC


 SCF WAVEFUNCTION OPTIMIZATION

  ----------------------------------- OT ---------------------------------------
  Minimizer      : DIIS                : direct inversion
                                         in the iterative subspace
                                         using   8 DIIS vectors
                                         safer DIIS on
  Preconditioner : FULL_KINETIC        : inversion of T + eS
  Precond_solver : DEFAULT
  stepsize       :    0.15000000                  energy_gap     :    0.00010000
  eps_taylor     :   0.10000E-15                  max_taylor     :             4
  ----------------------------------- OT ---------------------------------------

  Step     Update method      Time    Convergence         Total energy    Change
  ------------------------------------------------------------------------------
     1 OT DIIS     0.15E+00   17.6     0.00002905     -5897.6705723516 -5.90E+03
     2 OT DIIS     0.15E+00   18.1     0.00002148     -5897.6719181205 -1.35E-03
     3 OT DIIS     0.15E+00   18.2     0.00004471     -5897.6725018332 -5.84E-04
     4 OT DIIS     0.15E+00   18.1     0.00002549     -5897.6731421732 -6.40E-04
     5 OT DIIS     0.15E+00   18.1     0.00002117     -5897.6733463814 -2.04E-04
     6 OT DIIS     0.15E+00   18.2     0.00001016     -5897.6736305681 -2.84E-04
     7 OT DIIS     0.15E+00   18.2     0.00000980     -5897.6738050256 -1.74E-04
     8 OT DIIS     0.15E+00   18.2     0.00001169     -5897.6738593184 -5.43E-05
     9 OT DIIS     0.15E+00   18.2     0.00000578     -5897.6739384696 -7.92E-05
    10 OT DIIS     0.15E+00   18.2     0.00000595     -5897.6739920405 -5.36E-05
    11 OT DIIS     0.15E+00   18.2     0.00000423     -5897.6740149289 -2.29E-05
    12 OT DIIS     0.15E+00   18.1     0.00000418     -5897.6740613676 -4.64E-05
    13 OT DIIS     0.15E+00   18.2     0.00000502     -5897.6740745027 -1.31E-05
    14 OT DIIS     0.15E+00   18.2     0.00000448     -5897.6740965725 -2.21E-05
    15 OT DIIS     0.15E+00   18.2     0.00000318     -5897.6741178491 -2.13E-05
    16 OT DIIS     0.15E+00   18.2     0.00000282     -5897.6741459507 -2.81E-05
    17 OT DIIS     0.15E+00   18.2     0.00000364     -5897.6741610540 -1.51E-05
    18 OT DIIS     0.15E+00   18.2     0.00000255     -5897.6741807466 -1.97E-05
    19 OT DIIS     0.15E+00   18.2     0.00000257     -5897.6742029189 -2.22E-05
    20 OT DIIS     0.15E+00   18.2     0.00000240     -5897.6742137285 -1.08E-05
    21 OT DIIS     0.15E+00   18.1     0.00000210     -5897.6742365909 -2.29E-05
    22 OT DIIS     0.15E+00   18.2     0.00000276     -5897.6742449105 -8.32E-06
    23 OT DIIS     0.15E+00   18.2     0.00000233     -5897.6742558595 -1.09E-05
    24 OT DIIS     0.15E+00   18.2     0.00000192     -5897.6742639900 -8.13E-06
    25 OT DIIS     0.15E+00   18.2     0.00000167     -5897.6742769037 -1.29E-05
    26 OT DIIS     0.15E+00   18.2     0.00000212     -5897.6742853057 -8.40E-06
    27 OT DIIS     0.15E+00   18.2     0.00000159     -5897.6742938743 -8.57E-06
    28 OT DIIS     0.15E+00   18.2     0.00000154     -5897.6743044895 -1.06E-05
    29 OT DIIS     0.15E+00   18.2     0.00000154     -5897.6743105787 -6.09E-06
    30 OT DIIS     0.15E+00   18.1     0.00000133     -5897.6743210543 -1.05E-05

  Leaving inner SCF loop after reaching    30 steps.


  Electronic density on regular grids:      -3462.0000000011       -0.0000000011
  Core density on regular grids:             3461.9999999952       -0.0000000048
  Total charge density on r-space grids:       -0.0000000058
  Total charge density g-space grids:          -0.0000000049

  Overlap energy of the core charge distribution:               0.00000032666943
  Self energy of the core charge distribution:             -13940.11712806587093
  Core Hamiltonian energy:                                   3142.69195300936781
  Hartree energy:                                            6202.10459861914933
  Exchange-correlation energy:                              -1299.89693898457290
  Dispersion energy:                                           -2.45680595908171

  Total energy:                                             -5897.67432105434091

  outer SCF iter =    1 RMS gradient =   0.13E-05 energy =      -5897.6743210543

  ----------------------------------- OT ---------------------------------------
  Minimizer      : DIIS                : direct inversion
                                         in the iterative subspace
                                         using   8 DIIS vectors
                                         safer DIIS on
  Preconditioner : FULL_KINETIC        : inversion of T + eS
  Precond_solver : DEFAULT
  stepsize       :    0.15000000                  energy_gap     :    0.00010000
  eps_taylor     :   0.10000E-15                  max_taylor     :             4
  ----------------------------------- OT ---------------------------------------

  Step     Update method      Time    Convergence         Total energy    Change
  ------------------------------------------------------------------------------
     1 OT DIIS     0.15E+00   40.6     0.00000175     -5897.6743268116 -5.76E-06
     2 OT DIIS     0.15E+00   17.9     0.00000752     -5897.6743219036  4.91E-06
     3 OT DIIS     0.15E+00   17.9     0.00000144     -5897.6743299401 -8.04E-06
     4 OT DIIS     0.15E+00   17.9     0.00000114     -5897.6743306995 -7.59E-07
     5 OT DIIS     0.15E+00   17.9     0.00000147     -5897.6743392795 -8.58E-06
     6 OT DIIS     0.15E+00   17.9     0.00000163     -5897.6743473647 -8.09E-06
     7 OT DIIS     0.15E+00   17.9     0.00000083     -5897.6743521743 -4.81E-06

  *** SCF run converged in     7 steps ***


  Electronic density on regular grids:      -3461.9999999997        0.0000000003
  Core density on regular grids:             3461.9999999952       -0.0000000048
  Total charge density on r-space grids:       -0.0000000045
  Total charge density g-space grids:          -0.0000000035

  Overlap energy of the core charge distribution:               0.00000032666943
  Self energy of the core charge distribution:             -13940.11712806587093
  Core Hamiltonian energy:                                   3142.69084795148683
  Hartree energy:                                            6202.10505708359324
  Exchange-correlation energy:                              -1299.89632351113096
  Dispersion energy:                                           -2.45680595908171

  Total energy:                                             -5897.67435217433558

  outer SCF iter =    2 RMS gradient =   0.83E-06 energy =      -5897.6743521743
  outer SCF loop converged in   2 iterations or   37 steps


 ENERGY| Total FORCE_EVAL ( QS ) energy (a.u.):            -5897.674353775047166


 --------  Informations at step =     9 ------------
  Optimization Method        =                 BFGS
  Total Energy               =     -5897.6743537750
  Real energy change         =        -0.0045073154
  Predicted change in energy =        -0.0040590848
  Scaling factor             =         0.1251228185
  Step size                  =         0.4724315332
  Trust radius               =         0.4724315332
  Decrease in energy         =                  YES
  Used time                  =              712.365

  Convergence check :
  Max. step size             =         0.4724315332
  Conv. limit for step size  =         0.0030000000
  Convergence in step size   =                   NO
  RMS step size              =         0.0253043319
  Conv. limit for RMS step   =         0.0015000000
  Convergence in RMS step    =                   NO
  Max. gradient              =         0.0066701349
  Conv. limit for gradients  =         0.0004500000
  Conv. for gradients        =                   NO
  RMS gradient               =         0.0004677370
  Conv. limit for RMS grad.  =         0.0003000000
  Conv. for gradients        =                   NO
 ---------------------------------------------------

 --------------------------
 OPTIMIZATION STEP:     10
 --------------------------

  Step is scaled; Scaling factor =  0.91191

 Number of electrons:                                                       3462
 Number of occupied orbitals:                                               1731
 Number of molecular orbitals:                                              1731

 Number of orbital functions:                                               7500
 Number of independent orbital functions:                                   7500

 Extrapolation method: ASPC


 SCF WAVEFUNCTION OPTIMIZATION

  ----------------------------------- OT ---------------------------------------
  Minimizer      : DIIS                : direct inversion
                                         in the iterative subspace
                                         using   8 DIIS vectors
                                         safer DIIS on
  Preconditioner : FULL_KINETIC        : inversion of T + eS
  Precond_solver : DEFAULT
  stepsize       :    0.15000000                  energy_gap     :    0.00010000
  eps_taylor     :   0.10000E-15                  max_taylor     :             4
  ----------------------------------- OT ---------------------------------------

  Step     Update method      Time    Convergence         Total energy    Change
  ------------------------------------------------------------------------------
     1 OT DIIS     0.15E+00   17.6     0.00005530     -5897.6692721269 -5.90E+03
     2 OT DIIS     0.15E+00   18.1     0.00003445     -5897.6735585199 -4.29E-03
     3 OT DIIS     0.15E+00   18.1     0.00006252     -5897.6749819652 -1.42E-03
     4 OT DIIS     0.15E+00   18.1     0.00004327     -5897.6758081076 -8.26E-04
     5 OT DIIS     0.15E+00   18.2     0.00003870     -5897.6766831539 -8.75E-04
     6 OT DIIS     0.15E+00   18.1     0.00002307     -5897.6774408469 -7.58E-04
     7 OT DIIS     0.15E+00   18.2     0.00002420     -5897.6778763564 -4.36E-04
     8 OT DIIS     0.15E+00   18.2     0.00001737     -5897.6780565759 -1.80E-04
     9 OT DIIS     0.15E+00   18.2     0.00000829     -5897.6783333121 -2.77E-04
    10 OT DIIS     0.15E+00   18.1     0.00000867     -5897.6784386079 -1.05E-04
    11 OT DIIS     0.15E+00   18.2     0.00000804     -5897.6784801280 -4.15E-05
    12 OT DIIS     0.15E+00   18.2     0.00000515     -5897.6785490982 -6.90E-05
    13 OT DIIS     0.15E+00   18.2     0.00000824     -5897.6785662855 -1.72E-05
    14 OT DIIS     0.15E+00   18.2     0.00000489     -5897.6786022450 -3.60E-05
    15 OT DIIS     0.15E+00   18.2     0.00000451     -5897.6786231370 -2.09E-05
    16 OT DIIS     0.15E+00   18.2     0.00000397     -5897.6786451897 -2.21E-05
    17 OT DIIS     0.15E+00   18.2     0.00000439     -5897.6786580952 -1.29E-05
    18 OT DIIS     0.15E+00   18.2     0.00000247     -5897.6786795232 -2.14E-05
    19 OT DIIS     0.15E+00   18.2     0.00000252     -5897.6786962061 -1.67E-05
    20 OT DIIS     0.15E+00   18.2     0.00000286     -5897.6787047100 -8.50E-06
    21 OT DIIS     0.15E+00   18.1     0.00000193     -5897.6787146348 -9.92E-06
    22 OT DIIS     0.15E+00   18.2     0.00000321     -5897.6787205890 -5.95E-06
    23 OT DIIS     0.15E+00   18.2     0.00000196     -5897.6787260820 -5.49E-06
    24 OT DIIS     0.15E+00   18.2     0.00000189     -5897.6787300199 -3.94E-06
    25 OT DIIS     0.15E+00   18.2     0.00000158     -5897.6787336677 -3.65E-06
    26 OT DIIS     0.15E+00   18.2     0.00000189     -5897.6787362836 -2.62E-06
    27 OT DIIS     0.15E+00   18.2     0.00000111     -5897.6787395745 -3.29E-06
    28 OT DIIS     0.15E+00   18.2     0.00000107     -5897.6787429173 -3.34E-06
    29 OT DIIS     0.15E+00   18.2     0.00000127     -5897.6787451012 -2.18E-06
    30 OT DIIS     0.15E+00   18.2     0.00000092     -5897.6787468150 -1.71E-06

  *** SCF run converged in    30 steps ***


  Electronic density on regular grids:      -3462.0000000002       -0.0000000002
  Core density on regular grids:             3461.9999999952       -0.0000000048
  Total charge density on r-space grids:       -0.0000000050
  Total charge density g-space grids:          -0.0000000039

  Overlap energy of the core charge distribution:               0.00000032558180
  Self energy of the core charge distribution:             -13940.11712806587093
  Core Hamiltonian energy:                                   3142.58529627897133
  Hartree energy:                                            6202.18355461192914
  Exchange-correlation energy:                              -1299.87508620594735
  Dispersion energy:                                           -2.45538375969000

  Total energy:                                             -5897.67874681502690

  outer SCF iter =    1 RMS gradient =   0.92E-06 energy =      -5897.6787468150
  outer SCF loop converged in   1 iterations or   30 steps


 ENERGY| Total FORCE_EVAL ( QS ) energy (a.u.):            -5897.678748745804114


 --------  Informations at step =    10 ------------
  Optimization Method        =                 BFGS
[...]
 flops     6 x     6 x   448            711051264       0.0%    100.0%      0.0%
 flops    13 x     3 x     6           2916744480       0.0%    100.0%      0.0%
 flops     6 x     3 x    13           2916744480       0.0%    100.0%      0.0%
 flops     6 x    32 x     6           3912136704       0.0%    100.0%      0.0%
 flops     6 x    13 x   416          93981673344       0.0%    100.0%      0.0%
 flops     6 x    13 x   419          94659425796       0.0%    100.0%      0.0%
 flops    13 x     6 x   416          94944535296       0.0%    100.0%      0.0%
 flops    13 x     6 x   419          95629231464       0.0%    100.0%      0.0%
 flops    13 x    32 x    32         152372772864       0.0%    100.0%      0.0%
 flops     6 x    13 x   448         202422065664       0.0%    100.0%      0.0%
 flops    13 x     6 x   448         204495922176       0.0%    100.0%      0.0%
 flops    13 x     3 x    13        1521185606616       0.0%    100.0%      0.0%
 flops     6 x    32 x    13        1680044820480       0.0%    100.0%      0.0%
 flops    13 x    32 x     6        1680044820480       0.0%    100.0%      0.0%
 flops   416 x   416 x   416        3272292368384     100.0%      0.0%      0.0%
 flops   416 x   416 x   419        3295890630656     100.0%      0.0%      0.0%
 flops   416 x   419 x   416        3295890630656     100.0%      0.0%      0.0%
 flops   419 x   416 x   416        3295890630656     100.0%      0.0%      0.0%
 flops   416 x   419 x   419        3319659072704     100.0%      0.0%      0.0%
 flops   419 x   416 x   419        3319659072704     100.0%      0.0%      0.0%
 flops   419 x   419 x   416        3319659072704     100.0%      0.0%      0.0%
 flops   419 x   419 x   419        3343598921786     100.0%      0.0%      0.0%
 flops   416 x   416 x   448        7048014331904     100.0%      0.0%      0.0%
 flops   416 x   448 x   416        7048014331904     100.0%      0.0%      0.0%
 flops   448 x   416 x   416        7048014331904     100.0%      0.0%      0.0%
 flops   416 x   419 x   448        7098841358336     100.0%      0.0%      0.0%
 flops   416 x   448 x   419        7098841358336     100.0%      0.0%      0.0%
 flops   419 x   416 x   448        7098841358336     100.0%      0.0%      0.0%
 flops   419 x   448 x   416        7098841358336     100.0%      0.0%      0.0%
 flops   448 x   416 x   419        7098841358336     100.0%      0.0%      0.0%
 flops   448 x   419 x   416        7098841358336     100.0%      0.0%      0.0%
 flops   419 x   419 x   448        7150034925824     100.0%      0.0%      0.0%
 flops   419 x   448 x   419        7150034925824     100.0%      0.0%      0.0%
 flops   448 x   419 x   419        7150034925824     100.0%      0.0%      0.0%
 flops   448 x   448 x   416       15180338561024     100.0%      0.0%      0.0%
 flops   416 x   448 x   448       15180338561024     100.0%      0.0%      0.0%
 flops   448 x   416 x   448       15180338561024     100.0%      0.0%      0.0%
 flops   448 x   448 x   419       15289812156416     100.0%      0.0%      0.0%
 flops   419 x   448 x   448       15289812156416     100.0%      0.0%      0.0%
 flops   448 x   419 x   448       15289812156416     100.0%      0.0%      0.0%
 flops   416 x   416 x  1872       17172515782656     100.0%      0.0%      0.0%
 flops   416 x   416 x  1878       17227555897344     100.0%      0.0%      0.0%
 flops   416 x   419 x  1872       17296356040704     100.0%      0.0%      0.0%
 flops   419 x   416 x  1872       17296356040704     100.0%      0.0%      0.0%
 flops   416 x   419 x  1878       17351793079296     100.0%      0.0%      0.0%
 flops   419 x   416 x  1878       17351793079296     100.0%      0.0%      0.0%
 flops   419 x   419 x  1872       17421089377536     100.0%      0.0%      0.0%
 flops   419 x   419 x  1878       17476926202464     100.0%      0.0%      0.0%
 flops  1872 x   416 x   416       21286818349056     100.0%      0.0%      0.0%
 flops  1878 x   416 x   416       21355045330944     100.0%      0.0%      0.0%
 flops  1872 x   416 x   419       21440329058304     100.0%      0.0%      0.0%
 flops  1872 x   419 x   416       21440329058304     100.0%      0.0%      0.0%
 flops  1878 x   416 x   419       21509048061696     100.0%      0.0%      0.0%
 flops  1878 x   419 x   416       21509048061696     100.0%      0.0%      0.0%
 flops  1872 x   419 x   419       21594946815936     100.0%      0.0%      0.0%
 flops  1878 x   419 x   419       21664161389064     100.0%      0.0%      0.0%
 flops   448 x   448 x   448       32696113823744     100.0%      0.0%      0.0%
 flops   416 x   448 x  1872       36986957070336     100.0%      0.0%      0.0%
 flops   448 x   416 x  1872       36986957070336     100.0%      0.0%      0.0%
 flops   416 x   448 x  1878       37105505009664     100.0%      0.0%      0.0%
 flops   448 x   416 x  1878       37105505009664     100.0%      0.0%      0.0%
 flops   419 x   448 x  1872       37253689933824     100.0%      0.0%      0.0%
 flops   448 x   419 x  1872       37253689933824     100.0%      0.0%      0.0%
 flops   419 x   448 x  1878       37373092786176     100.0%      0.0%      0.0%
 flops   448 x   419 x  1878       37373092786176     100.0%      0.0%      0.0%
 flops  1872 x   416 x  1872       41320556199936     100.0%      0.0%      0.0%
 flops  1872 x   416 x  1878       41452993880064     100.0%      0.0%      0.0%
 flops  1878 x   416 x  1872       41452993880064     100.0%      0.0%      0.0%
 flops  1878 x   416 x  1878       41585856039936     100.0%      0.0%      0.0%
 flops  1872 x   419 x  1872       41618540980224     100.0%      0.0%      0.0%
 flops  1872 x   419 x  1878       41751933739776     100.0%      0.0%      0.0%
 flops  1878 x   419 x  1872       41751933739776     100.0%      0.0%      0.0%
 flops  1878 x   419 x  1878       41885754040224     100.0%      0.0%      0.0%
 flops  1872 x   416 x   448       45848531828736     100.0%      0.0%      0.0%
 flops  1872 x   448 x   416       45848531828736     100.0%      0.0%      0.0%
 flops  1878 x   448 x   416       45995482251264     100.0%      0.0%      0.0%
 flops  1878 x   416 x   448       45995482251264     100.0%      0.0%      0.0%
 flops  1872 x   419 x   448       46179170279424     100.0%      0.0%      0.0%
 flops  1872 x   448 x   419       46179170279424     100.0%      0.0%      0.0%
 flops  1878 x   448 x   419       46327180440576     100.0%      0.0%      0.0%
 flops  1878 x   419 x   448       46327180440576     100.0%      0.0%      0.0%
 flops    13 x    13 x   416       49442043346176       0.0%    100.0%      0.0%
 flops    13 x    13 x   419       49798596543384       0.0%    100.0%      0.0%
 flops   448 x   448 x  1872       79664215228416     100.0%      0.0%      0.0%
 flops   448 x   448 x  1878       79919549251584     100.0%      0.0%      0.0%
 flops  1872 x   448 x  1872       88998121046016     100.0%      0.0%      0.0%
 flops  1878 x   448 x  1872       89283371433984     100.0%      0.0%      0.0%
 flops  1872 x   448 x  1878       89283371433984     100.0%      0.0%      0.0%
 flops  1878 x   448 x  1878       89569536086016     100.0%      0.0%      0.0%
 flops  1872 x   448 x   448       98750683938816     100.0%      0.0%      0.0%
 flops  1878 x   448 x   448       99067192541184     100.0%      0.0%      0.0%
 flops    13 x    13 x   448      106490554899456       0.0%    100.0%      0.0%
 flops    13 x    32 x    13      876202909410816       0.0%    100.0%      0.0%
 flops inhomo. stacks                           0       0.0%      0.0%      0.0%
 flops total                         3.347412E+15      67.5%     32.5%      0.0%
 flops max/rank                    222.843108E+12      66.5%     33.5%      0.0%
 matmuls inhomo. stacks                         0       0.0%      0.0%      0.0%
 matmuls total                        84624996972       0.0%    100.0%      0.0%
 number of processed stacks              89892291       4.0%     96.0%      0.0%
 average stack size                                     1.0     980.4       0.0
 marketing flops                     4.521068E+15
 -------------------------------------------------------------------------------
 # multiplications                          67852
 max memory usage/rank               1.996800E+09
 # max total images/rank                        1
 # max 3D layers                                1
 # MPI messages exchanged                 6513792
 MPI messages size (bytes):
  total size                        34.608586E+12
  min size                           0.000000E+00
  max size                          28.215072E+06
  average size                       5.313124E+06
 MPI breakdown and total messages size (bytes):
             size <=      128               24288                        0
       128 < size <=     8192                   0                        0
      8192 < size <=    32768                   0                        0
     32768 < size <=   131072                2208                244226880
    131072 < size <=  4194304             2970288            4450027560984
   4194304 < size <= 16777216             3205446           22891948195824
  16777216 < size                          311562            7275725214096
 -------------------------------------------------------------------------------

 MEMORY| Estimated peak process memory [MiB]                                1905

 -------------------------------------------------------------------------------
 -                                                                             -
 -                         MESSAGE PASSING PERFORMANCE                         -
 -                                                                             -
 -------------------------------------------------------------------------------

 ROUTINE             CALLS      AVE VOLUME [Bytes]
 MP_Group             2504
 MP_Bcast            36627                  16046.
 MP_Allreduce       463686                    342.
 MP_Sync                 4
 MP_Alltoall        294960               34940328.
 MP_SendRecv          9420                  25638.
 MP_ISendRecv       210990                 730080.
 MP_Wait           3626077
 MP_ISend          1199944                2294788.
 MP_IRecv          1199944                2297920.
 MP_Recv             20145                1337036.
 MP_Memory         2971682
 -------------------------------------------------------------------------------


 -------------------------------------------------------------------------------
 -                                                                             -
 -                           R E F E R E N C E S                               -
 -                                                                             -
 -------------------------------------------------------------------------------
 
 CP2K version 7.0 (Development Version), the CP2K developers group (2018).
 CP2K is freely available from https://www.cp2k.org/ .

 Schuett, Ole; Messmer, Peter; Hutter, Juerg; VandeVondele, Joost. 
 Electronic Structure Calculations on Graphics Processing Units, John Wiley & Sons, Ltd, 173-190 (2016). 
 GPU-Accelerated Sparse Matrix-Matrix Multiplication for Linear Scaling Density Functional Theory.
 http://dx.doi.org/10.1002/9781118670712.ch8


 Borstnik, U; VandeVondele, J; Weber, V; Hutter, J. 
 PARALLEL COMPUTING, 40 (5-6), 47-58 (2014). 
 Sparse matrix multiplication: The distributed block-compressed sparse
 row library.
 http://dx.doi.org/10.1016/j.parco.2014.03.012


 Hutter, J; Iannuzzi, M; Schiffmann, F; VandeVondele, J. 
 WILEY INTERDISCIPLINARY REVIEWS-COMPUTATIONAL MOLECULAR SCIENCE, 4 (1), 15-25 (2014). 
 CP2K: atomistic simulations of condensed matter systems.
 http://dx.doi.org/10.1002/wcms.1159


 Grimme, S; Ehrlich, S; Goerigk, L. 
 JOURNAL OF COMPUTATIONAL CHEMISTRY, 32, 1456 (2011). 
 Effect of the damping function in dispersion corrected density functional theory.
 http://dx.doi.org/10.1002/jcc.21759


 Grimme, S; Antony, J; Ehrlich, S; Krieg, H. 
 JOURNAL OF CHEMICAL PHYSICS, 132 (15), 154104 (2010). 
 A consistent and accurate ab initio parametrization of density
 functional dispersion correction (DFT-D) for the 94 elements H-Pu.
 http://dx.doi.org/10.1063/1.3382344


 VandeVondele, J; Hutter, J. 
 JOURNAL OF CHEMICAL PHYSICS, 127 (11), 114105 (2007). 
 Gaussian basis sets for accurate calculations on molecular systems in
 gas and condensed phases.
 http://dx.doi.org/10.1063/1.2770708


 Krack, M. 
 THEORETICAL CHEMISTRY ACCOUNTS, 114 (1-3), 145-152 (2005). 
 Pseudopotentials for H to Kr optimized for gradient-corrected
 exchange-correlation functionals.
 http://dx.doi.org/10.1007/s00214-005-0655-y


 VandeVondele, J; Krack, M; Mohamed, F; Parrinello, M; Chassaing, T;
 Hutter, J. COMPUTER PHYSICS COMMUNICATIONS, 167 (2), 103-128 (2005). 
 QUICKSTEP: Fast and accurate density functional calculations using a
 mixed Gaussian and plane waves approach.
 http://dx.doi.org/10.1016/j.cpc.2004.12.014


 Frigo, M; Johnson, SG. 
 PROCEEDINGS OF THE IEEE, 93 (2), 216-231 (2005). 
 The design and implementation of FFTW3.
 http://dx.doi.org/10.1109/JPROC.2004.840301


 Kolafa, J. 
 JOURNAL OF COMPUTATIONAL CHEMISTRY, 25 (3), 335-342 (2004). 
 Time-reversible always stable predictor-corrector method for molecular dynamics of polarizable molecules.
 http://dx.doi.org/10.1002/jcc.10385


 VandeVondele, J; Hutter, J. 
 JOURNAL OF CHEMICAL PHYSICS, 118 (10), 4365-4369 (2003). 
 An efficient orbital transformation method for electronic structure
 calculations.
 http://dx.doi.org/10.1063/1.1543154


 Hartwigsen, C; Goedecker, S; Hutter, J. 
 PHYSICAL REVIEW B, 58 (7), 3641-3662 (1998). 
 Relativistic separable dual-space Gaussian pseudopotentials from H to Rn.
 http://dx.doi.org/10.1103/PhysRevB.58.3641


 Lippert, G; Hutter, J; Parrinello, M. 
 MOLECULAR PHYSICS, 92 (3), 477-487 (1997). 
 A hybrid Gaussian and plane wave density functional scheme.
 http://dx.doi.org/10.1080/002689797170220


 Perdew, JP; Burke, K; Ernzerhof, M. 
 PHYSICAL REVIEW LETTERS, 77 (18), 3865-3868 (1996). 
 Generalized gradient approximation made simple.
 http://dx.doi.org/10.1103/PhysRevLett.77.3865


 Goedecker, S; Teter, M; Hutter, J. 
 PHYSICAL REVIEW B, 54 (3), 1703-1710 (1996). 
 Separable dual-space Gaussian pseudopotentials.
 http://dx.doi.org/10.1103/PhysRevB.54.1703


 -------------------------------------------------------------------------------
 -                                                                             -
 -                                T I M I N G                                  -
 -                                                                             -
 -------------------------------------------------------------------------------
 SUBROUTINE                       CALLS  ASD         SELF TIME        TOTAL TIME
                                MAXIMUM       AVERAGE  MAXIMUM  AVERAGE  MAXIMUM
 CP2K                                 1  1.0     0.02     0.03 66794.32 66795.67
 cp_geo_opt                           1  2.0     0.00     0.00 66792.46 66793.81
 geoopt_bfgs                          1  3.0     0.19     0.37 66792.46 66793.81
 cp_eval_at                         158  4.0     0.02     0.05 66697.71 66699.06
 qs_forces                          157  5.0     0.04     0.04 66573.37 66574.72
 qs_energies                        158  6.0     0.01     0.02 64206.84 64212.53
 scf_env_do_scf                     158  7.0     0.01     0.09 62167.31 62168.69
 scf_env_do_scf_inner_loop         3359  8.0     0.16     0.79 59381.70 59572.85
 rebuild_ks_matrix                 3516  9.9     0.02     0.02 37187.70 37339.55
 qs_ks_build_kohn_sham_matrix      3516 10.9     0.50     0.55 37187.68 37339.53
 qs_ks_update_qs_env               3543  9.0     0.04     0.05 35369.89 35514.84
 pw_transfer                      66967 13.5     6.57     7.23 24996.78 25090.97
 fft_wrap_pw1pw2                  59935 14.6     0.89     0.97 24775.55 24873.54
 fft_wrap_pw1pw2_150              38836 15.7  1945.55  2190.22 23831.37 23920.86
 qs_vxc_create                     3516 11.9     0.09     0.10 20787.28 20844.04
 xc_vxc_pw_create                  3516 12.9   254.65   259.94 20787.19 20843.94
 fft3d_ps                         59935 16.6 10817.05 11269.86 18213.25 18570.43
 dbcsr_multiply_generic           67852 14.0     4.98     5.30 14754.75 14962.55
 qs_rho_update_rho                 3517  9.0     0.03     0.05 13642.15 13790.89
 calculate_rho_elec                3517 10.0  7259.37  7486.02 13642.12 13790.86
 multiply_cannon                  67852 15.0     9.90    11.55 12437.16 13053.32
 qs_scf_new_mos                    3359  9.0     0.03     0.07 12829.66 13048.75
 qs_scf_loop_do_ot                 3359 10.0     0.03     0.03 12829.62 13048.72
 ot_scf_mini                       3359 11.0     0.17     0.20 11542.27 11740.28
 multiply_cannon_multrec         271408 16.0 11010.99 11735.43 11012.09 11736.46
 sum_up_and_integrate              3516 11.9    53.50    55.23 11294.41 11298.94
 xc_rho_set_and_dset_create        3516 13.9    90.32    96.24 11145.83 11249.13
 integrate_v_rspace                3516 12.9  7304.76  7459.50 11240.91 11246.84
 ot_mini                           3359 12.0     0.02     0.02  7444.89  7665.98
 density_rs2pw                     3517 11.0     0.19     0.22  5892.94  6149.45
 qs_ot_get_derivative              3359 13.0     0.04     0.04  4814.96  5013.75
 x_to_yz                          31645 18.1  3077.53  3148.09  4296.58  4618.99
 potential_pw2rs                   3516 13.9     7.45     7.89  3611.08  3615.42
 yz_to_x                          28290 17.1  1851.23  1919.46  3098.30  3520.43
 xc_functional_eval                3516 14.9     0.04     0.05  3349.02  3445.66
 pbe_lda_eval                      3516 15.9  3348.98  3445.61  3348.98  3445.61
 mp_alltoall_z22v                 59935 18.6  2466.12  3314.86  2466.12  3314.86
 qs_ot_get_derivative_taylor       2972 14.0     0.13     0.16  2831.36  3007.31
 pw_gather_p                      28290 16.1  2343.75  2645.99  2343.75  2645.99
 ot_diis_step                      3359 13.0     0.20     0.22  2616.08  2616.13
 init_scf_loop                      184  8.0     0.01     0.01  2589.21  2589.25
 apply_preconditioner_dbcsr        3543 14.0     0.01     0.01  2444.27  2492.57
 apply_single                      3543 15.0     0.01     0.02  2444.26  2492.56
 pw_scatter_p                     31645 17.1  2210.13  2302.75  2210.13  2302.75
 rs_pw_transfer                   28447 13.4     0.62     0.76  2070.98  2289.53
 qs_ks_update_qs_env_forces         157  6.0     0.00     0.00  1841.40  1848.17
 init_scf_run                       158  7.0     0.01     0.09  1520.19  1520.25
 scf_env_initial_rho_setup          158  8.0     0.00     0.04  1520.18  1520.25
 wfi_extrapolate                    158  9.0     0.02     0.03  1508.92  1508.95
 mp_waitall_1                   3511029 17.6  1336.71  1483.38  1336.71  1483.38
 make_m2s                        135704 15.0     4.21     4.64  1455.70  1482.47
 calculate_dm_sparse               3517 11.0     0.02     0.03  1352.55  1477.66
 qs_ot_get_p                       3543 11.9     0.02     0.03  1119.15  1364.11
 -------------------------------------------------------------------------------

 The number of warnings for this run is : 0
 
 -------------------------------------------------------------------------------
  **** **** ******  **  PROGRAM ENDED AT                 2022-02-23 07:17:55.487
 ***** ** ***  *** **   PROGRAM RAN ON                                sebnode115
 **    ****   ******    PROGRAM RAN BY                                    luehrs
 ***** **    ** ** **   PROGRAM PROCESS ID                                 24257
  **** **  *******  **  PROGRAM STOPPED IN /home/luehrs/Sulphur_Surface_Reaction
                                           /S8_2Li_position/3.S8_o
