 DBCSR| Multiplication driver                                               XSMM
 DBCSR| Multrec recursion limit                                              512
 DBCSR| Multiplication stack size                                           1000
 DBCSR| Maximum elements for images                                    UNLIMITED
 DBCSR| Multiplicative factor virtual images                                   1
 DBCSR| Multiplication size stacks                                             3
 DBCSR| Number of 3D layers                                               SINGLE
 DBCSR| Use MPI memory allocation                                              T
 DBCSR| Use RMA algorithm                                                      F
 DBCSR| Use Communication thread                                               T
 DBCSR| Communication thread load                                             87


  **** **** ******  **  PROGRAM STARTED AT               2023-06-08 10:28:25.741
 ***** ** ***  *** **   PROGRAM STARTED ON                            sebnode123
 **    ****   ******    PROGRAM STARTED BY                                luehrs
 ***** **    ** ** **   PROGRAM PROCESS ID                               1201712
  **** **  *******  **  PROGRAM STARTED IN /home/luehrs/PhD/Li-S_paper/Li-S-Surf
                                           ace_Reaction/Third_Lithiation_of_S8_S
                                           urface/Third_Lithiation_around_S8/Thi
                                           rd_Lithiation_L2/Third_Lithiation_par
                                           allel/3.S8_p

 CP2K| version string:                    CP2K version 7.0 (Development Version)
 CP2K| source code revision number:                                             
 CP2K| cp2kflags: libint fftw3 libxc parallel mpi3 scalapack xsmm libderiv_max_a
 CP2K|            m1=8 libint_max_am=9 max_contr=4
 CP2K| is freely available from                            https://www.cp2k.org/
 CP2K| Program compiled at                         Sun Jun 24 14:37:16 CEST 2018
 CP2K| Program compiled on                                            sebstorage
 CP2K| Program compiled for                                Linux-x86-64-gfortran
 CP2K| Data directory path    /home/brehm/Software_Batchnode/2018/Source/cp2k_18
 CP2K| Input file name                                                input3.inp

 GLOBAL| Force Environment number                                              1
 GLOBAL| Basis set file name                                      ./BASIS_MOLOPT
 GLOBAL| Potential file name                                    ./GTH_POTENTIALS
 GLOBAL| MM Potential file name                                     MM_POTENTIAL
 GLOBAL| Coordinate file name              ./Third_lithiation_S8_3.p_relaxed.xyz
 GLOBAL| Method name                                                        CP2K
 GLOBAL| Project name                                                   Li_react
 GLOBAL| Preferred FFT library                                             FFTW3
 GLOBAL| Preferred diagonalization lib.                                       SL
 GLOBAL| Run type                                                        GEO_OPT
 GLOBAL| All-to-all communication in single precision                          F
 GLOBAL| FFTs using library dependent lengths                                  F
 GLOBAL| Global print level                                                  LOW
 GLOBAL| Total number of message passing processes                            16
 GLOBAL| Number of threads for this process                                    1
 GLOBAL| This output is from process                                           0
 GLOBAL| CPU model name :  Intel(R) Xeon(R) Gold 6144 CPU @ 3.50GHz

 MEMORY| system memory details [Kb]
 MEMORY|                        rank 0           min           max       average
 MEMORY| MemTotal             65596912      65596912      65596912      65596912
 MEMORY| MemFree              62132324      62132324      62132324      62132324
 MEMORY| Buffers                246092        246092        246092        246092
 MEMORY| Cached                1365204       1365204       1365204       1365204
 MEMORY| Slab                   635312        635312        635312        635312
 MEMORY| SReclaimable           351316        351316        351316        351316
 MEMORY| MemLikelyFree        64094936      64094936      64094936      64094936


 GENERATE|  Preliminary Number of Bonds generated:                             0
 GENERATE|  Achieved consistency in connectivity generation.

 *******************************************************************************
 *******************************************************************************
 **                                                                           **
 **     #####                         ##              ##                      **
 **    ##   ##            ##          ##              ##                      **
 **   ##     ##                       ##            ######                    **
 **   ##     ##  ##   ##  ##   #####  ##  ##   ####   ##    #####    #####    **
 **   ##     ##  ##   ##  ##  ##      ## ##   ##      ##   ##   ##  ##   ##   **
 **   ##  ## ##  ##   ##  ##  ##      ####     ###    ##   ######   ######    **
 **    ##  ###   ##   ##  ##  ##      ## ##      ##   ##   ##       ##        **
 **     #######   #####   ##   #####  ##  ##  ####    ##    #####   ##        **
 **           ##                                                    ##        **
 **                                                                           **
 **                                                ... make the atoms dance   **
 **                                                                           **
 **            Copyright (C) by CP2K developers group (2000 - 2018)           **
 **                                                                           **
 *******************************************************************************


 TOTAL NUMBERS AND MAXIMUM NUMBERS

  Total number of            - Atomic kinds:                                   2
                             - Atoms:                                        582
                             - Shell sets:                                   582
                             - Shells:                                      2904
                             - Primitive Cartesian functions:               3486
                             - Cartesian basis functions:                   8100
                             - Spherical basis functions:                   7524

  Maximum angular momentum of- Orbital basis functions:                        2
                             - Local part of the GTH pseudopotential:          6
                             - Non-local part of the GTH pseudopotential:      2


 SCF PARAMETERS         Density guess:                                   RESTART
                        --------------------------------------------------------
                        max_scf:                                              30
                        max_scf_history:                                       0
                        max_diis:                                              4
                        --------------------------------------------------------
                        eps_scf:                                        1.00E-06
                        eps_scf_history:                                0.00E+00
                        eps_diis:                                       1.00E-01
                        eps_eigval:                                     1.00E-05
                        --------------------------------------------------------
                        level_shift [a.u.]:                                 0.00
                        --------------------------------------------------------
                        Outer loop SCF in use 
                        No variables optimised in outer loop
                        eps_scf                                         1.00E-06
                        max_scf                                               25
                        DIIS optimization
                        DIIS buffer length                                     3
                        step_size                                       5.00E-01

 BFGS| Use rational function optimization for step estimation:                NO
 BFGS| Use model Hessian for initial guess:                                  YES
 BFGS| Restart Hessian:                                                       NO
 BFGS| Trust radius:                                                       0.472

 *******************************************************************************
 ***                     STARTING GEOMETRY OPTIMIZATION                      ***
 ***                                   BFGS                                  ***
 *******************************************************************************

 Number of electrons:                                                       3474
 Number of occupied orbitals:                                               1737
 Number of molecular orbitals:                                              1737

 Number of orbital functions:                                               7524
 Number of independent orbital functions:                                   7524

 Extrapolation method: initial_guess

 *** WARNING in qs_initial_guess.F:263 :: User requested to restart the   ***
 *** wavefunction from the file named: Li_react-RESTART.wfn. This file    ***
 *** does not exist. Please check the existence of the file or change     ***
 *** properly the value of the keyword WFN_RESTART_FILE_NAME. Calculation ***
 *** continues using ATOMIC GUESS.                                        ***



 SCF WAVEFUNCTION OPTIMIZATION

  ----------------------------------- OT ---------------------------------------
  Minimizer      : DIIS                : direct inversion
                                         in the iterative subspace
                                         using   8 DIIS vectors
                                         safer DIIS on
  Preconditioner : FULL_KINETIC        : inversion of T + eS
  Precond_solver : DEFAULT
  stepsize       :    0.15000000                  energy_gap     :    0.00010000
  eps_taylor     :   0.10000E-15                  max_taylor     :             4
  ----------------------------------- OT ---------------------------------------

  Step     Update method      Time    Convergence         Total energy    Change
  ------------------------------------------------------------------------------
     1 OT DIIS     0.15E+00   15.4     0.00641980     -5756.6519622701 -5.76E+03
     2 OT DIIS     0.15E+00   16.0     0.02519601     -5755.7314114299  9.21E-01
     3 OT DIIS     0.15E+00   16.1     0.00635743     -5810.3488626031 -5.46E+01
     4 OT DIIS     0.15E+00   16.1     0.00620155     -5831.2732591415 -2.09E+01
     5 OT DIIS     0.15E+00   16.1     0.00525314     -5847.5948912420 -1.63E+01
     6 OT DIIS     0.15E+00   16.1     0.00430178     -5858.4500837516 -1.09E+01
     7 OT DIIS     0.15E+00   16.1     0.00261617     -5874.1867004478 -1.57E+01
     8 OT DIIS     0.15E+00   16.0     0.00293351     -5884.4369279072 -1.03E+01
     9 OT DIIS     0.15E+00   16.1     0.00200452     -5891.8752045562 -7.44E+00
    10 OT DIIS     0.15E+00   16.1     0.00173823     -5897.5324957460 -5.66E+00
    11 OT DIIS     0.15E+00   16.1     0.00162479     -5901.7360465988 -4.20E+00
    12 OT DIIS     0.15E+00   16.1     0.00178812     -5904.8052810246 -3.07E+00
    13 OT DIIS     0.15E+00   16.1     0.00129093     -5907.5635030817 -2.76E+00
    14 OT DIIS     0.15E+00   16.1     0.00111407     -5910.5374195634 -2.97E+00
    15 OT DIIS     0.15E+00   16.1     0.00097689     -5913.3208886664 -2.78E+00
    16 OT DIIS     0.15E+00   16.1     0.00089472     -5915.3311260415 -2.01E+00
    17 OT DIIS     0.15E+00   16.1     0.00099113     -5916.9222052286 -1.59E+00
    18 OT DIIS     0.15E+00   16.1     0.00075401     -5918.3656971657 -1.44E+00
    19 OT DIIS     0.15E+00   16.1     0.00076898     -5919.5059827936 -1.14E+00
    20 OT DIIS     0.15E+00   16.1     0.00070101     -5920.4145826904 -9.09E-01
    21 OT DIIS     0.15E+00   16.0     0.00057994     -5921.3905386819 -9.76E-01
    22 OT DIIS     0.15E+00   16.1     0.00057518     -5922.2207881016 -8.30E-01
    23 OT DIIS     0.15E+00   16.0     0.00055901     -5922.8188704783 -5.98E-01
    24 OT DIIS     0.15E+00   16.0     0.00046988     -5923.5231166206 -7.04E-01
    25 OT DIIS     0.15E+00   16.0     0.00043406     -5923.8971112147 -3.74E-01
    26 OT DIIS     0.15E+00   16.1     0.00042306     -5924.3481864521 -4.51E-01
    27 OT DIIS     0.15E+00   16.1     0.00037690     -5924.5752581865 -2.27E-01
    28 OT DIIS     0.15E+00   16.1     0.00035576     -5924.9110560898 -3.36E-01
    29 OT DIIS     0.15E+00   16.1     0.00034938     -5925.1077170465 -1.97E-01
    30 OT DIIS     0.15E+00   16.1     0.00030603     -5925.4058300473 -2.98E-01

  Leaving inner SCF loop after reaching    30 steps.


  Electronic density on regular grids:      -3474.0000000007       -0.0000000007
  Core density on regular grids:             3473.9999999952       -0.0000000048
  Total charge density on r-space grids:       -0.0000000056
  Total charge density g-space grids:          -0.0000000045

  Overlap energy of the core charge distribution:               0.00000032685014
  Self energy of the core charge distribution:             -13965.50565932552126
  Core Hamiltonian energy:                                   3147.06372641831149
  Hartree energy:                                            6202.55077120683836
  Exchange-correlation energy:                              -1307.04699481718535
  Dispersion energy:                                           -2.46767385657669

  Total energy:                                             -5925.40583004728342

  outer SCF iter =    1 RMS gradient =   0.31E-03 energy =      -5925.4058300473

  ----------------------------------- OT ---------------------------------------
  Minimizer      : DIIS                : direct inversion
                                         in the iterative subspace
                                         using   8 DIIS vectors
                                         safer DIIS on
  Preconditioner : FULL_KINETIC        : inversion of T + eS
  Precond_solver : DEFAULT
  stepsize       :    0.15000000                  energy_gap     :    0.00010000
  eps_taylor     :   0.10000E-15                  max_taylor     :             4
  ----------------------------------- OT ---------------------------------------

  Step     Update method      Time    Convergence         Total energy    Change
  ------------------------------------------------------------------------------
     1 OT DIIS     0.15E+00   35.1     0.00040332     -5925.5907750298 -1.85E-01
     2 OT DIIS     0.15E+00   15.7     0.00105381     -5925.6766045684 -8.58E-02
     3 OT DIIS     0.15E+00   15.8     0.00039071     -5925.8456437753 -1.69E-01
     4 OT DIIS     0.15E+00   16.1     0.00047884     -5925.9278686114 -8.22E-02
     5 OT DIIS     0.15E+00   16.1     0.00035673     -5926.1353972380 -2.08E-01
     6 OT DIIS     0.15E+00   16.0     0.00036723     -5926.2959747916 -1.61E-01
     7 OT DIIS     0.15E+00   16.0     0.00026979     -5926.4032104089 -1.07E-01
     8 OT DIIS     0.15E+00   16.1     0.00034026     -5926.5412908809 -1.38E-01
     9 OT DIIS     0.15E+00   16.1     0.00023408     -5926.7500516873 -2.09E-01
    10 OT DIIS     0.15E+00   16.1     0.00027633     -5926.7952442378 -4.52E-02
    11 OT DIIS     0.15E+00   16.0     0.00024325     -5926.9608808579 -1.66E-01
    12 OT DIIS     0.15E+00   16.1     0.00025853     -5927.0813179732 -1.20E-01
    13 OT DIIS     0.15E+00   16.1     0.00020893     -5927.1408636581 -5.95E-02
    14 OT DIIS     0.15E+00   16.1     0.00021240     -5927.2206947336 -7.98E-02
    15 OT DIIS     0.15E+00   16.1     0.00018673     -5927.2858144471 -6.51E-02
    16 OT DIIS     0.15E+00   16.1     0.00017348     -5927.3216467872 -3.58E-02
    17 OT DIIS     0.15E+00   16.1     0.00015071     -5927.3649206385 -4.33E-02
    18 OT DIIS     0.15E+00   16.0     0.00014512     -5927.4106963107 -4.58E-02
    19 OT DIIS     0.15E+00   16.0     0.00012729     -5927.4282334148 -1.75E-02
    20 OT DIIS     0.15E+00   16.0     0.00012218     -5927.4542776375 -2.60E-02
    21 OT DIIS     0.15E+00   16.0     0.00011325     -5927.4752258826 -2.09E-02
    22 OT DIIS     0.15E+00   16.0     0.00010839     -5927.4850214904 -9.80E-03
    23 OT DIIS     0.15E+00   16.0     0.00009787     -5927.4996612527 -1.46E-02
    24 OT DIIS     0.15E+00   15.9     0.00009461     -5927.5118213493 -1.22E-02
    25 OT DIIS     0.15E+00   16.0     0.00008752     -5927.5207828819 -8.96E-03
    26 OT DIIS     0.15E+00   16.0     0.00008184     -5927.5311341283 -1.04E-02
    27 OT DIIS     0.15E+00   16.0     0.00007683     -5927.5429660575 -1.18E-02
    28 OT DIIS     0.15E+00   16.0     0.00007252     -5927.5493038050 -6.34E-03
    29 OT DIIS     0.15E+00   16.0     0.00006919     -5927.5591295619 -9.83E-03
    30 OT DIIS     0.15E+00   16.0     0.00007050     -5927.5689484407 -9.82E-03

  Leaving inner SCF loop after reaching    30 steps.


  Electronic density on regular grids:      -3474.0000000007       -0.0000000007
  Core density on regular grids:             3473.9999999952       -0.0000000048
  Total charge density on r-space grids:       -0.0000000056
  Total charge density g-space grids:          -0.0000000045

  Overlap energy of the core charge distribution:               0.00000032685014
  Self energy of the core charge distribution:             -13965.50565932552126
  Core Hamiltonian energy:                                   3144.40910528341738
  Hartree energy:                                            6203.35298432597665
  Exchange-correlation energy:                              -1307.35770519480275
  Dispersion energy:                                           -2.46767385657669

  Total energy:                                             -5927.56894844065664

  outer SCF iter =    2 RMS gradient =   0.71E-04 energy =      -5927.5689484407

  ----------------------------------- OT ---------------------------------------
  Minimizer      : DIIS                : direct inversion
                                         in the iterative subspace
                                         using   8 DIIS vectors
                                         safer DIIS on
  Preconditioner : FULL_KINETIC        : inversion of T + eS
  Precond_solver : DEFAULT
  stepsize       :    0.15000000                  energy_gap     :    0.00010000
  eps_taylor     :   0.10000E-15                  max_taylor     :             4
  ----------------------------------- OT ---------------------------------------

  Step     Update method      Time    Convergence         Total energy    Change
  ------------------------------------------------------------------------------
     1 OT DIIS     0.15E+00   35.9     0.00007746     -5927.5748932856 -5.94E-03
     2 OT DIIS     0.15E+00   15.6     0.00020861     -5927.5794622627 -4.57E-03
     3 OT DIIS     0.15E+00   15.7     0.00007007     -5927.5857141117 -6.25E-03
     4 OT DIIS     0.15E+00   15.7     0.00008151     -5927.5917170252 -6.00E-03
     5 OT DIIS     0.15E+00   15.8     0.00007397     -5927.6037128924 -1.20E-02
     6 OT DIIS     0.15E+00   15.8     0.00006557     -5927.6119967797 -8.28E-03
     7 OT DIIS     0.15E+00   15.7     0.00006594     -5927.6170217144 -5.02E-03
     8 OT DIIS     0.15E+00   16.0     0.00006809     -5927.6281086722 -1.11E-02
     9 OT SD       0.15E+00   16.1     0.00006269     -5927.6443989322 -1.63E-02
    10 OT DIIS     0.15E+00   16.1     0.00011407     -5927.6499760715 -5.58E-03
    11 OT DIIS     0.15E+00   16.1     0.00006419     -5927.6693776646 -1.94E-02
    12 OT DIIS     0.15E+00   16.1     0.00006998     -5927.6792961803 -9.92E-03
    13 OT DIIS     0.15E+00   16.1     0.00006981     -5927.6907936120 -1.15E-02
    14 OT DIIS     0.15E+00   16.1     0.00009592     -5927.7139018117 -2.31E-02
    15 OT DIIS     0.15E+00   16.1     0.00007391     -5927.7288474996 -1.49E-02
    16 OT DIIS     0.15E+00   16.1     0.00007445     -5927.7363044060 -7.46E-03
    17 OT DIIS     0.15E+00   16.3     0.00006834     -5927.7343802375  1.92E-03
    18 OT DIIS     0.15E+00   16.0     0.00003156     -5927.7436934086 -9.31E-03
    19 OT DIIS     0.15E+00   16.0     0.00004918     -5927.7440096152 -3.16E-04
    20 OT DIIS     0.15E+00   16.0     0.00003746     -5927.7459473491 -1.94E-03
    21 OT DIIS     0.15E+00   15.9     0.00003739     -5927.7474572344 -1.51E-03
    22 OT DIIS     0.15E+00   16.0     0.00002890     -5927.7483542464 -8.97E-04
    23 OT DIIS     0.15E+00   16.0     0.00002402     -5927.7497115809 -1.36E-03
    24 OT DIIS     0.15E+00   16.0     0.00002221     -5927.7506126881 -9.01E-04
    25 OT DIIS     0.15E+00   16.0     0.00002226     -5927.7512899396 -6.77E-04
    26 OT DIIS     0.15E+00   16.0     0.00002752     -5927.7518606737 -5.71E-04
    27 OT DIIS     0.15E+00   16.0     0.00002009     -5927.7526237933 -7.63E-04
    28 OT DIIS     0.15E+00   16.0     0.00002129     -5927.7531996222 -5.76E-04
    29 OT DIIS     0.15E+00   16.0     0.00001938     -5927.7537311580 -5.32E-04
    30 OT DIIS     0.15E+00   16.0     0.00001720     -5927.7545537881 -8.23E-04

  Leaving inner SCF loop after reaching    30 steps.


  Electronic density on regular grids:      -3474.0000000005       -0.0000000005
  Core density on regular grids:             3473.9999999952       -0.0000000048
  Total charge density on r-space grids:       -0.0000000054
  Total charge density g-space grids:          -0.0000000045

  Overlap energy of the core charge distribution:               0.00000032685014
  Self energy of the core charge distribution:             -13965.50565932552126
  Core Hamiltonian energy:                                   3144.14808407653209
  Hartree energy:                                            6203.45314821001193
  Exchange-correlation energy:                              -1307.38245321938803
  Dispersion energy:                                           -2.46767385657669

  Total energy:                                             -5927.75455378809147

  outer SCF iter =    3 RMS gradient =   0.17E-04 energy =      -5927.7545537881

  ----------------------------------- OT ---------------------------------------
  Minimizer      : DIIS                : direct inversion
                                         in the iterative subspace
                                         using   8 DIIS vectors
                                         safer DIIS on
  Preconditioner : FULL_KINETIC        : inversion of T + eS
  Precond_solver : DEFAULT
  stepsize       :    0.15000000                  energy_gap     :    0.00010000
  eps_taylor     :   0.10000E-15                  max_taylor     :             4
  ----------------------------------- OT ---------------------------------------

  Step     Update method      Time    Convergence         Total energy    Change
  ------------------------------------------------------------------------------
     1 OT DIIS     0.15E+00   34.8     0.00001829     -5927.7549739882 -4.20E-04
     2 OT DIIS     0.15E+00   15.6     0.00004562     -5927.7552458018 -2.72E-04
     3 OT DIIS     0.15E+00   15.7     0.00001666     -5927.7555551211 -3.09E-04
     4 OT DIIS     0.15E+00   15.8     0.00002470     -5927.7558509017 -2.96E-04
     5 OT DIIS     0.15E+00   15.8     0.00001489     -5927.7565908817 -7.40E-04
     6 OT DIIS     0.15E+00   15.8     0.00001321     -5927.7568649660 -2.74E-04
     7 OT DIIS     0.15E+00   15.8     0.00001778     -5927.7572901625 -4.25E-04
     8 OT DIIS     0.15E+00   15.7     0.00001394     -5927.7580745364 -7.84E-04
     9 OT DIIS     0.15E+00   15.8     0.00001123     -5927.7585404000 -4.66E-04
    10 OT DIIS     0.15E+00   15.8     0.00001653     -5927.7586790639 -1.39E-04
    11 OT DIIS     0.15E+00   15.7     0.00001027     -5927.7592983985 -6.19E-04
    12 OT DIIS     0.15E+00   15.8     0.00001122     -5927.7593779410 -7.95E-05
    13 OT DIIS     0.15E+00   15.8     0.00000835     -5927.7595398094 -1.62E-04
    14 OT DIIS     0.15E+00   15.8     0.00000813     -5927.7598017073 -2.62E-04
    15 OT DIIS     0.15E+00   15.8     0.00000729     -5927.7598890892 -8.74E-05
    16 OT DIIS     0.15E+00   15.8     0.00000758     -5927.7600312190 -1.42E-04
    17 OT DIIS     0.15E+00   15.8     0.00000714     -5927.7601727056 -1.41E-04
    18 OT DIIS     0.15E+00   15.7     0.00000673     -5927.7603005470 -1.28E-04
    19 OT DIIS     0.15E+00   15.7     0.00000759     -5927.7604509483 -1.50E-04
    20 OT DIIS     0.15E+00   15.7     0.00000669     -5927.7606781370 -2.27E-04
    21 OT DIIS     0.15E+00   15.7     0.00000742     -5927.7607533620 -7.52E-05
    22 OT DIIS     0.15E+00   15.7     0.00000654     -5927.7609266610 -1.73E-04
    23 OT DIIS     0.15E+00   15.7     0.00000631     -5927.7612511433 -3.24E-04
    24 OT DIIS     0.15E+00   15.7     0.00000621     -5927.7613698540 -1.19E-04
    25 OT DIIS     0.15E+00   15.7     0.00000612     -5927.7616097394 -2.40E-04
    26 OT DIIS     0.15E+00   15.7     0.00000624     -5927.7618068132 -1.97E-04
    27 OT DIIS     0.15E+00   15.7     0.00000544     -5927.7619641843 -1.57E-04
    28 OT DIIS     0.15E+00   15.7     0.00000675     -5927.7621321971 -1.68E-04
    29 OT DIIS     0.15E+00   15.7     0.00000547     -5927.7622938095 -1.62E-04
    30 OT DIIS     0.15E+00   15.7     0.00000626     -5927.7623588989 -6.51E-05

  Leaving inner SCF loop after reaching    30 steps.


  Electronic density on regular grids:      -3474.0000015819       -0.0000015819
  Core density on regular grids:             3473.9999999952       -0.0000000048
  Total charge density on r-space grids:       -0.0000015867
  Total charge density g-space grids:          -0.0000015857

  Overlap energy of the core charge distribution:               0.00000032685014
  Self energy of the core charge distribution:             -13965.50565932552126
  Core Hamiltonian energy:                                   3144.13962624055239
  Hartree energy:                                            6203.45532025432658
  Exchange-correlation energy:                              -1307.38397253855169
  Dispersion energy:                                           -2.46767385657669

  Total energy:                                             -5927.76235889891996

  outer SCF iter =    4 RMS gradient =   0.63E-05 energy =      -5927.7623588989

  ----------------------------------- OT ---------------------------------------
  Minimizer      : DIIS                : direct inversion
                                         in the iterative subspace
                                         using   8 DIIS vectors
                                         safer DIIS on
  Preconditioner : FULL_KINETIC        : inversion of T + eS
  Precond_solver : DEFAULT
  stepsize       :    0.15000000                  energy_gap     :    0.00010000
  eps_taylor     :   0.10000E-15                  max_taylor     :             4
  ----------------------------------- OT ---------------------------------------

  Step     Update method      Time    Convergence         Total energy    Change
  ------------------------------------------------------------------------------
     1 OT DIIS     0.15E+00   35.8     0.00000516     -5927.7624640880 -1.05E-04
     2 OT DIIS     0.15E+00   15.4     0.00001538     -5927.7624730432 -8.96E-06
     3 OT DIIS     0.15E+00   15.5     0.00000508     -5927.7625070305 -3.40E-05
     4 OT DIIS     0.15E+00   15.6     0.00000440     -5927.7625197906 -1.28E-05
     5 OT DIIS     0.15E+00   15.6     0.00000590     -5927.7625693500 -4.96E-05
     6 OT DIIS     0.15E+00   15.8     0.00000424     -5927.7626812560 -1.12E-04
     7 OT DIIS     0.15E+00   15.7     0.00000383     -5927.7627486305 -6.74E-05
     8 OT DIIS     0.15E+00   15.7     0.00000483     -5927.7628365398 -8.79E-05
     9 OT DIIS     0.15E+00   15.8     0.00000418     -5927.7629129197 -7.64E-05
    10 OT DIIS     0.15E+00   15.8     0.00000330     -5927.7629283308 -1.54E-05
    11 OT DIIS     0.15E+00   15.8     0.00000389     -5927.7630218409 -9.35E-05
    12 OT DIIS     0.15E+00   15.8     0.00000350     -5927.7630437902 -2.19E-05
    13 OT DIIS     0.15E+00   15.8     0.00000324     -5927.7630533325 -9.54E-06
    14 OT DIIS     0.15E+00   15.8     0.00000319     -5927.7630967635 -4.34E-05
    15 OT DIIS     0.15E+00   15.8     0.00000290     -5927.7631234461 -2.67E-05
    16 OT DIIS     0.15E+00   15.8     0.00000278     -5927.7631512455 -2.78E-05
    17 OT DIIS     0.15E+00   15.8     0.00000298     -5927.7632031262 -5.19E-05
    18 OT DIIS     0.15E+00   15.7     0.00000289     -5927.7632485327 -4.54E-05
    19 OT DIIS     0.15E+00   15.8     0.00000272     -5927.7632597951 -1.13E-05
    20 OT DIIS     0.15E+00   15.7     0.00000292     -5927.7633355933 -7.58E-05
    21 OT DIIS     0.15E+00   15.6     0.00000269     -5927.7633722355 -3.66E-05
    22 OT DIIS     0.15E+00   15.7     0.00000298     -5927.7633866099 -1.44E-05
    23 OT DIIS     0.15E+00   15.7     0.00000269     -5927.7634589707 -7.24E-05
    24 OT DIIS     0.15E+00   15.7     0.00000268     -5927.7635070279 -4.81E-05
    25 OT DIIS     0.15E+00   15.7     0.00000239     -5927.7635499979 -4.30E-05
    26 OT DIIS     0.15E+00   15.7     0.00000243     -5927.7636108126 -6.08E-05
    27 OT DIIS     0.15E+00   15.7     0.00000248     -5927.7636550121 -4.42E-05
    28 OT DIIS     0.15E+00   15.7     0.00000232     -5927.7636693382 -1.43E-05
    29 OT DIIS     0.15E+00   15.8     0.00000250     -5927.7637301956 -6.09E-05
    30 OT DIIS     0.15E+00   15.7     0.00000230     -5927.7637580575 -2.79E-05

  Leaving inner SCF loop after reaching    30 steps.


  Electronic density on regular grids:      -3474.0000000691       -0.0000000691
  Core density on regular grids:             3473.9999999952       -0.0000000048
  Total charge density on r-space grids:       -0.0000000740
  Total charge density g-space grids:          -0.0000000730

  Overlap energy of the core charge distribution:               0.00000032685014
  Self energy of the core charge distribution:             -13965.50565932552126
  Core Hamiltonian energy:                                   3144.13808477665089
  Hartree energy:                                            6203.45507873771021
  Exchange-correlation energy:                              -1307.38358871662240
  Dispersion energy:                                           -2.46767385657669

  Total energy:                                             -5927.76375805750922

  outer SCF iter =    5 RMS gradient =   0.23E-05 energy =      -5927.7637580575

  ----------------------------------- OT ---------------------------------------
  Minimizer      : DIIS                : direct inversion
                                         in the iterative subspace
                                         using   8 DIIS vectors
                                         safer DIIS on
  Preconditioner : FULL_KINETIC        : inversion of T + eS
  Precond_solver : DEFAULT
  stepsize       :    0.15000000                  energy_gap     :    0.00010000
  eps_taylor     :   0.10000E-15                  max_taylor     :             4
  ----------------------------------- OT ---------------------------------------

  Step     Update method      Time    Convergence         Total energy    Change
  ------------------------------------------------------------------------------
     1 OT DIIS     0.15E+00   34.5     0.00000259     -5927.7637681174 -1.01E-05
     2 OT DIIS     0.15E+00   15.5     0.00001211     -5927.7637570789  1.10E-05
     3 OT DIIS     0.15E+00   15.5     0.00000191     -5927.7637759660 -1.89E-05
     4 OT DIIS     0.15E+00   15.5     0.00000197     -5927.7637786333 -2.67E-06
     5 OT DIIS     0.15E+00   15.6     0.00000228     -5927.7637883772 -9.74E-06
     6 OT DIIS     0.15E+00   15.6     0.00000158     -5927.7638104107 -2.20E-05
     7 OT DIIS     0.15E+00   15.6     0.00000190     -5927.7638228349 -1.24E-05
     8 OT DIIS     0.15E+00   15.5     0.00000189     -5927.7638360773 -1.32E-05
     9 OT DIIS     0.15E+00   15.6     0.00000146     -5927.7638473196 -1.12E-05
    10 OT DIIS     0.15E+00   15.7     0.00000160     -5927.7638502876 -2.97E-06
    11 OT DIIS     0.15E+00   15.7     0.00000155     -5927.7638634883 -1.32E-05
    12 OT DIIS     0.15E+00   15.8     0.00000139     -5927.7638673885 -3.90E-06
    13 OT DIIS     0.15E+00   15.8     0.00000136     -5927.7638703513 -2.96E-06
    14 OT DIIS     0.15E+00   15.8     0.00000133     -5927.7638782407 -7.89E-06
    15 OT DIIS     0.15E+00   15.8     0.00000116     -5927.7638837714 -5.53E-06
    16 OT DIIS     0.15E+00   15.8     0.00000117     -5927.7638886804 -4.91E-06
    17 OT DIIS     0.15E+00   15.8     0.00000116     -5927.7638952587 -6.58E-06
    18 OT DIIS     0.15E+00   15.8     0.00000112     -5927.7639008348 -5.58E-06
    19 OT DIIS     0.15E+00   15.7     0.00000114     -5927.7639047935 -3.96E-06
    20 OT DIIS     0.15E+00   15.7     0.00000118     -5927.7639136626 -8.87E-06
    21 OT DIIS     0.15E+00   15.7     0.00000110     -5927.7639171509 -3.49E-06
    22 OT DIIS     0.15E+00   15.8     0.00000114     -5927.7639204507 -3.30E-06
    23 OT DIIS     0.15E+00   15.7     0.00000111     -5927.7639294534 -9.00E-06
    24 OT DIIS     0.15E+00   15.7     0.00000103     -5927.7639355722 -6.12E-06
    25 OT DIIS     0.15E+00   15.7     0.00000105     -5927.7639437973 -8.23E-06
    26 OT DIIS     0.15E+00   15.7     0.00000104     -5927.7639539365 -1.01E-05
    27 OT DIIS     0.15E+00   15.7     0.00000100     -5927.7639625229 -8.59E-06

  *** SCF run converged in    27 steps ***


  Electronic density on regular grids:      -3474.0000000007       -0.0000000007
  Core density on regular grids:             3473.9999999952       -0.0000000048
  Total charge density on r-space grids:       -0.0000000055
  Total charge density g-space grids:          -0.0000000046

  Overlap energy of the core charge distribution:               0.00000032685014
  Self energy of the core charge distribution:             -13965.50565932552126
  Core Hamiltonian energy:                                   3144.13533059873862
  Hartree energy:                                            6203.45662369497404
  Exchange-correlation energy:                              -1307.38258396137940
  Dispersion energy:                                           -2.46767385657669

  Total energy:                                             -5927.76396252291488

  outer SCF iter =    6 RMS gradient =   0.10E-05 energy =      -5927.7639625229
  outer SCF loop converged in   6 iterations or  177 steps


 ENERGY| Total FORCE_EVAL ( QS ) energy (a.u.):            -5927.763969763683235


 --------  Informations at step =     0 ------------
  Optimization Method        =                 BFGS
  Total Energy               =     -5927.7639697637
  Used time                  =             2858.831
 ---------------------------------------------------

 --------------------------
 OPTIMIZATION STEP:      1
 --------------------------

 Number of electrons:                                                       3474
 Number of occupied orbitals:                                               1737
 Number of molecular orbitals:                                              1737

 Number of orbital functions:                                               7524
 Number of independent orbital functions:                                   7524

 Extrapolation method: ASPC


 SCF WAVEFUNCTION OPTIMIZATION

  ----------------------------------- OT ---------------------------------------
  Minimizer      : DIIS                : direct inversion
                                         in the iterative subspace
                                         using   8 DIIS vectors
                                         safer DIIS on
  Preconditioner : FULL_KINETIC        : inversion of T + eS
  Precond_solver : DEFAULT
  stepsize       :    0.15000000                  energy_gap     :    0.00010000
  eps_taylor     :   0.10000E-15                  max_taylor     :             4
  ----------------------------------- OT ---------------------------------------

  Step     Update method      Time    Convergence         Total energy    Change
  ------------------------------------------------------------------------------
     1 OT DIIS     0.15E+00   15.0     0.00002836     -5927.7658322815 -5.93E+03
     2 OT DIIS     0.15E+00   15.7     0.00001964     -5927.7671177696 -1.29E-03
     3 OT DIIS     0.15E+00   15.7     0.00003161     -5927.7679985652 -8.81E-04
     4 OT DIIS     0.15E+00   15.7     0.00002195     -5927.7682371122 -2.39E-04
     5 OT DIIS     0.15E+00   15.8     0.00001885     -5927.7685648695 -3.28E-04
     6 OT DIIS     0.15E+00   15.7     0.00001749     -5927.7687541863 -1.89E-04
     7 OT DIIS     0.15E+00   15.8     0.00000997     -5927.7689351353 -1.81E-04
     8 OT DIIS     0.15E+00   15.8     0.00001089     -5927.7690190266 -8.39E-05
     9 OT DIIS     0.15E+00   15.8     0.00000814     -5927.7690905233 -7.15E-05
    10 OT DIIS     0.15E+00   15.8     0.00000765     -5927.7691380105 -4.75E-05
    11 OT DIIS     0.15E+00   15.8     0.00000626     -5927.7691532706 -1.53E-05
    12 OT DIIS     0.15E+00   15.8     0.00000410     -5927.7691938189 -4.05E-05
    13 OT DIIS     0.15E+00   15.7     0.00000504     -5927.7692116237 -1.78E-05
    14 OT DIIS     0.15E+00   15.7     0.00000358     -5927.7692278291 -1.62E-05
    15 OT DIIS     0.15E+00   15.7     0.00000332     -5927.7692436393 -1.58E-05
    16 OT DIIS     0.15E+00   15.7     0.00000285     -5927.7692541445 -1.05E-05
    17 OT DIIS     0.15E+00   15.7     0.00000255     -5927.7692636848 -9.54E-06
    18 OT DIIS     0.15E+00   15.7     0.00000236     -5927.7692722714 -8.59E-06
    19 OT DIIS     0.15E+00   15.7     0.00000246     -5927.7692791606 -6.89E-06
    20 OT DIIS     0.15E+00   15.7     0.00000218     -5927.7692833096 -4.15E-06
    21 OT DIIS     0.15E+00   15.6     0.00000197     -5927.7692887567 -5.45E-06
    22 OT DIIS     0.15E+00   15.7     0.00000177     -5927.7692925872 -3.83E-06
    23 OT DIIS     0.15E+00   15.7     0.00000160     -5927.7692960752 -3.49E-06
    24 OT DIIS     0.15E+00   15.7     0.00000143     -5927.7692998312 -3.76E-06
    25 OT DIIS     0.15E+00   15.7     0.00000140     -5927.7693034472 -3.62E-06
    26 OT DIIS     0.15E+00   15.7     0.00000139     -5927.7693065393 -3.09E-06
    27 OT DIIS     0.15E+00   15.7     0.00000123     -5927.7693102295 -3.69E-06
    28 OT DIIS     0.15E+00   15.7     0.00000127     -5927.7693138420 -3.61E-06
    29 OT DIIS     0.15E+00   15.7     0.00000120     -5927.7693163184 -2.48E-06
    30 OT DIIS     0.15E+00   15.7     0.00000117     -5927.7693199954 -3.68E-06

  Leaving inner SCF loop after reaching    30 steps.


  Electronic density on regular grids:      -3474.0000000013       -0.0000000013
  Core density on regular grids:             3473.9999999952       -0.0000000048
  Total charge density on r-space grids:       -0.0000000062
  Total charge density g-space grids:          -0.0000000052

  Overlap energy of the core charge distribution:               0.00000032696249
  Self energy of the core charge distribution:             -13965.50565932552126
  Core Hamiltonian energy:                                   3144.14618817699420
  Hartree energy:                                            6203.44589770085713
  Exchange-correlation energy:                              -1307.38784889459612
  Dispersion energy:                                           -2.46789798006373

  Total energy:                                             -5927.76931999536555

  outer SCF iter =    1 RMS gradient =   0.12E-05 energy =      -5927.7693199954

  ----------------------------------- OT ---------------------------------------
  Minimizer      : DIIS                : direct inversion
                                         in the iterative subspace
                                         using   8 DIIS vectors
                                         safer DIIS on
  Preconditioner : FULL_KINETIC        : inversion of T + eS
  Precond_solver : DEFAULT
  stepsize       :    0.15000000                  energy_gap     :    0.00010000
  eps_taylor     :   0.10000E-15                  max_taylor     :             4
  ----------------------------------- OT ---------------------------------------

  Step     Update method      Time    Convergence         Total energy    Change
  ------------------------------------------------------------------------------
     1 OT DIIS     0.15E+00   34.5     0.00000115     -5927.7693230277 -3.03E-06
     2 OT DIIS     0.15E+00   15.5     0.00000373     -5927.7693232716 -2.44E-07
     3 OT DIIS     0.15E+00   15.5     0.00000102     -5927.7693251983 -1.93E-06
     4 OT DIIS     0.15E+00   15.5     0.00000102     -5927.7693259419 -7.44E-07
     5 OT DIIS     0.15E+00   15.5     0.00000106     -5927.7693279602 -2.02E-06
     6 OT DIIS     0.15E+00   15.5     0.00000135     -5927.7693381706 -1.02E-05
     7 OT DIIS     0.15E+00   15.5     0.00000087     -5927.7693420013 -3.83E-06

  *** SCF run converged in     7 steps ***


  Electronic density on regular grids:      -3474.0000000012       -0.0000000012
  Core density on regular grids:             3473.9999999952       -0.0000000048
  Total charge density on r-space grids:       -0.0000000061
  Total charge density g-space grids:          -0.0000000050

  Overlap energy of the core charge distribution:               0.00000032696249
  Self energy of the core charge distribution:             -13965.50565932552126
  Core Hamiltonian energy:                                   3144.14557718611104
  Hartree energy:                                            6203.44636647348216
  Exchange-correlation energy:                              -1307.38772868231854
  Dispersion energy:                                           -2.46789798006373

  Total energy:                                             -5927.76934200134656

  outer SCF iter =    2 RMS gradient =   0.87E-06 energy =      -5927.7693420013
  outer SCF loop converged in   2 iterations or   37 steps


 ENERGY| Total FORCE_EVAL ( QS ) energy (a.u.):            -5927.769343284821844


 --------  Informations at step =     1 ------------
  Optimization Method        =                 BFGS
  Total Energy               =     -5927.7693432848
  Real energy change         =        -0.0053735211
  Predicted change in energy =        -0.0037538524
  Scaling factor             =         0.0000000000
  Step size                  =         0.0697656847
  Trust radius               =         0.4724315332
  Decrease in energy         =                  YES
  Used time                  =              608.440

  Convergence check :
  Max. step size             =         0.0697656847
  Conv. limit for step size  =         0.0030000000
  Convergence in step size   =                   NO
  RMS step size              =         0.0052816065
  Conv. limit for RMS step   =         0.0015000000
  Convergence in RMS step    =                   NO
  Max. gradient              =         0.0061561806
  Conv. limit for gradients  =         0.0004500000
  Conv. for gradients        =                   NO
  RMS gradient               =         0.0004669893
  Conv. limit for RMS grad.  =         0.0003000000
  Conv. for gradients        =                   NO
 ---------------------------------------------------

 --------------------------
 OPTIMIZATION STEP:      2
 --------------------------

 Number of electrons:                                                       3474
 Number of occupied orbitals:                                               1737
 Number of molecular orbitals:                                              1737

 Number of orbital functions:                                               7524
 Number of independent orbital functions:                                   7524

 Extrapolation method: ASPC


 SCF WAVEFUNCTION OPTIMIZATION

  ----------------------------------- OT ---------------------------------------
  Minimizer      : DIIS                : direct inversion
                                         in the iterative subspace
                                         using   8 DIIS vectors
                                         safer DIIS on
  Preconditioner : FULL_KINETIC        : inversion of T + eS
  Precond_solver : DEFAULT
  stepsize       :    0.15000000                  energy_gap     :    0.00010000
  eps_taylor     :   0.10000E-15                  max_taylor     :             4
  ----------------------------------- OT ---------------------------------------

  Step     Update method      Time    Convergence         Total energy    Change
  ------------------------------------------------------------------------------
     1 OT DIIS     0.15E+00   14.9     0.00001207     -5927.7705821780 -5.93E+03
     2 OT DIIS     0.15E+00   15.5     0.00000935     -5927.7708071450 -2.25E-04
     3 OT DIIS     0.15E+00   15.6     0.00002773     -5927.7708192887 -1.21E-05
     4 OT DIIS     0.15E+00   15.7     0.00000777     -5927.7709833908 -1.64E-04
     5 OT DIIS     0.15E+00   15.6     0.00000929     -5927.7710276411 -4.43E-05
     6 OT DIIS     0.15E+00   15.7     0.00000744     -5927.7710680466 -4.04E-05
     7 OT DIIS     0.15E+00   15.7     0.00000550     -5927.7711113397 -4.33E-05
     8 OT DIIS     0.15E+00   15.8     0.00000495     -5927.7711303316 -1.90E-05
     9 OT DIIS     0.15E+00   15.8     0.00000412     -5927.7711454351 -1.51E-05
    10 OT DIIS     0.15E+00   15.8     0.00000415     -5927.7711562403 -1.08E-05
    11 OT DIIS     0.15E+00   15.8     0.00000242     -5927.7711631796 -6.94E-06
    12 OT DIIS     0.15E+00   15.8     0.00000229     -5927.7711709668 -7.79E-06
    13 OT DIIS     0.15E+00   15.7     0.00000224     -5927.7711774232 -6.46E-06
    14 OT DIIS     0.15E+00   15.7     0.00000193     -5927.7711816692 -4.25E-06
    15 OT DIIS     0.15E+00   15.8     0.00000164     -5927.7711865868 -4.92E-06
    16 OT DIIS     0.15E+00   15.8     0.00000163     -5927.7711907345 -4.15E-06
    17 OT DIIS     0.15E+00   15.7     0.00000140     -5927.7711938078 -3.07E-06
    18 OT DIIS     0.15E+00   15.7     0.00000139     -5927.7711974525 -3.64E-06
    19 OT DIIS     0.15E+00   15.7     0.00000142     -5927.7712004883 -3.04E-06
    20 OT DIIS     0.15E+00   15.8     0.00000113     -5927.7712030348 -2.55E-06
    21 OT DIIS     0.15E+00   15.8     0.00000117     -5927.7712061626 -3.13E-06
    22 OT DIIS     0.15E+00   15.8     0.00000109     -5927.7712085878 -2.43E-06
    23 OT DIIS     0.15E+00   15.8     0.00000105     -5927.7712106132 -2.03E-06
    24 OT DIIS     0.15E+00   15.8     0.00000099     -5927.7712129742 -2.36E-06

  *** SCF run converged in    24 steps ***


  Electronic density on regular grids:      -3474.0000000014       -0.0000000014
  Core density on regular grids:             3473.9999999952       -0.0000000048
  Total charge density on r-space grids:       -0.0000000063
  Total charge density g-space grids:          -0.0000000053

  Overlap energy of the core charge distribution:               0.00000032705601
  Self energy of the core charge distribution:             -13965.50565932552126
  Core Hamiltonian energy:                                   3144.12742327698834
  Hartree energy:                                            6203.45754436458265
  Exchange-correlation energy:                              -1307.38240480957575
  Dispersion energy:                                           -2.46811680773284

  Total energy:                                             -5927.77121297420308

  outer SCF iter =    1 RMS gradient =   0.99E-06 energy =      -5927.7712129742
  outer SCF loop converged in   1 iterations or   24 steps


 ENERGY| Total FORCE_EVAL ( QS ) energy (a.u.):            -5927.771215529047367


 --------  Informations at step =     2 ------------
  Optimization Method        =                 BFGS
  Total Energy               =     -5927.7712155290
  Real energy change         =        -0.0018722442
  Predicted change in energy =        -0.0017704402
  Scaling factor             =         0.0000000000
  Step size                  =         0.0803856828
  Trust radius               =         0.4724315332
  Decrease in energy         =                  YES
  Used time                  =              403.611

  Convergence check :
  Max. step size             =         0.0803856828
  Conv. limit for step size  =         0.0030000000
  Convergence in step size   =                   NO
  RMS step size              =         0.0053826659
  Conv. limit for RMS step   =         0.0015000000
  Convergence in RMS step    =                   NO
  Max. gradient              =         0.0039910431
  Conv. limit for gradients  =         0.0004500000
  Conv. for gradients        =                   NO
  RMS gradient               =         0.0002843789
  Conv. limit for RMS grad.  =         0.0003000000
  Conv. in RMS gradients     =                  YES
 ---------------------------------------------------

 --------------------------
 OPTIMIZATION STEP:      3
 --------------------------

 Number of electrons:                                                       3474
 Number of occupied orbitals:                                               1737
 Number of molecular orbitals:                                              1737

 Number of orbital functions:                                               7524
 Number of independent orbital functions:                                   7524

 Extrapolation method: ASPC


 SCF WAVEFUNCTION OPTIMIZATION

  ----------------------------------- OT ---------------------------------------
  Minimizer      : DIIS                : direct inversion
                                         in the iterative subspace
                                         using   8 DIIS vectors
                                         safer DIIS on
  Preconditioner : FULL_KINETIC        : inversion of T + eS
  Precond_solver : DEFAULT
  stepsize       :    0.15000000                  energy_gap     :    0.00010000
  eps_taylor     :   0.10000E-15                  max_taylor     :             4
  ----------------------------------- OT ---------------------------------------

  Step     Update method      Time    Convergence         Total energy    Change
  ------------------------------------------------------------------------------
     1 OT DIIS     0.15E+00   14.9     0.00002205     -5927.7699025768 -5.93E+03
     2 OT DIIS     0.15E+00   15.6     0.00001593     -5927.7706533805 -7.51E-04
     3 OT DIIS     0.15E+00   15.6     0.00004777     -5927.7707478339 -9.45E-05
     4 OT DIIS     0.15E+00   15.6     0.00001326     -5927.7712252605 -4.77E-04
     5 OT DIIS     0.15E+00   15.7     0.00001914     -5927.7713092402 -8.40E-05
     6 OT DIIS     0.15E+00   15.7     0.00001256     -5927.7714728861 -1.64E-04
     7 OT DIIS     0.15E+00   15.7     0.00000854     -5927.7715652041 -9.23E-05
     8 OT DIIS     0.15E+00   15.7     0.00000883     -5927.7716232175 -5.80E-05
     9 OT DIIS     0.15E+00   15.7     0.00000737     -5927.7716625092 -3.93E-05
    10 OT DIIS     0.15E+00   15.8     0.00000536     -5927.7716929840 -3.05E-05
    11 OT DIIS     0.15E+00   15.8     0.00000467     -5927.7717065415 -1.36E-05
    12 OT DIIS     0.15E+00   15.8     0.00000325     -5927.7717261799 -1.96E-05
    13 OT DIIS     0.15E+00   15.8     0.00000341     -5927.7717397372 -1.36E-05
    14 OT DIIS     0.15E+00   15.7     0.00000298     -5927.7717478850 -8.15E-06
    15 OT DIIS     0.15E+00   15.8     0.00000236     -5927.7717578692 -9.98E-06
    16 OT DIIS     0.15E+00   15.7     0.00000234     -5927.7717642537 -6.38E-06
    17 OT DIIS     0.15E+00   15.7     0.00000199     -5927.7717692025 -4.95E-06
    18 OT DIIS     0.15E+00   15.8     0.00000175     -5927.7717745081 -5.31E-06
    19 OT DIIS     0.15E+00   15.7     0.00000172     -5927.7717784835 -3.98E-06
    20 OT DIIS     0.15E+00   15.7     0.00000169     -5927.7717808705 -2.39E-06
    21 OT DIIS     0.15E+00   15.6     0.00000133     -5927.7717839369 -3.07E-06
    22 OT DIIS     0.15E+00   15.7     0.00000135     -5927.7717860519 -2.11E-06
    23 OT DIIS     0.15E+00   15.7     0.00000112     -5927.7717876263 -1.57E-06
    24 OT DIIS     0.15E+00   15.7     0.00000103     -5927.7717895659 -1.94E-06
    25 OT DIIS     0.15E+00   15.7     0.00000098     -5927.7717909590 -1.39E-06

  *** SCF run converged in    25 steps ***


  Electronic density on regular grids:      -3474.0000000016       -0.0000000016
  Core density on regular grids:             3473.9999999952       -0.0000000048
  Total charge density on r-space grids:       -0.0000000064
  Total charge density g-space grids:          -0.0000000053

  Overlap energy of the core charge distribution:               0.00000032679185
  Self energy of the core charge distribution:             -13965.50565932552126
  Core Hamiltonian energy:                                   3144.09761921576774
  Hartree energy:                                            6203.47705236001912
  Exchange-correlation energy:                              -1307.37267088933140
  Dispersion energy:                                           -2.46813264670912

  Total energy:                                             -5927.77179095898282

  outer SCF iter =    1 RMS gradient =   0.98E-06 energy =      -5927.7717909590
  outer SCF loop converged in   1 iterations or   25 steps


 ENERGY| Total FORCE_EVAL ( QS ) energy (a.u.):            -5927.771792459650896


 --------  Informations at step =     3 ------------
  Optimization Method        =                 BFGS
  Total Energy               =     -5927.7717924597
  Real energy change         =        -0.0005769306
  Predicted change in energy =        -0.0002776250
  Scaling factor             =         0.0000000000
  Step size                  =         0.0197000975
  Trust radius               =         0.4724315332
  Decrease in energy         =                  YES
  Used time                  =              419.057

  Convergence check :
  Max. step size             =         0.0197000975
  Conv. limit for step size  =         0.0030000000
  Convergence in step size   =                   NO
  RMS step size              =         0.0016294964
  Conv. limit for RMS step   =         0.0015000000
  Convergence in RMS step    =                   NO
  Max. gradient              =         0.0022460033
  Conv. limit for gradients  =         0.0004500000
  Conv. for gradients        =                   NO
  RMS gradient               =         0.0001897339
  Conv. limit for RMS grad.  =         0.0003000000
  Conv. in RMS gradients     =                  YES
 ---------------------------------------------------

 --------------------------
 OPTIMIZATION STEP:      4
 --------------------------

 Number of electrons:                                                       3474
 Number of occupied orbitals:                                               1737
 Number of molecular orbitals:                                              1737

 Number of orbital functions:                                               7524
 Number of independent orbital functions:                                   7524

 Extrapolation method: ASPC


 SCF WAVEFUNCTION OPTIMIZATION

  ----------------------------------- OT ---------------------------------------
  Minimizer      : DIIS                : direct inversion
                                         in the iterative subspace
                                         using   8 DIIS vectors
                                         safer DIIS on
  Preconditioner : FULL_KINETIC        : inversion of T + eS
  Precond_solver : DEFAULT
  stepsize       :    0.15000000                  energy_gap     :    0.00010000
  eps_taylor     :   0.10000E-15                  max_taylor     :             4
  ----------------------------------- OT ---------------------------------------

  Step     Update method      Time    Convergence         Total energy    Change
  ------------------------------------------------------------------------------
     1 OT DIIS     0.15E+00   14.9     0.00002431     -5927.7700375580 -5.93E+03
     2 OT DIIS     0.15E+00   15.6     0.00001979     -5927.7709565492 -9.19E-04
     3 OT DIIS     0.15E+00   15.6     0.00005927     -5927.7709373819  1.92E-05
     4 OT DIIS     0.15E+00   15.7     0.00001551     -5927.7717330915 -7.96E-04
     5 OT DIIS     0.15E+00   15.7     0.00001809     -5927.7718755166 -1.42E-04
     6 OT DIIS     0.15E+00   15.7     0.00001691     -5927.7720735709 -1.98E-04
     7 OT DIIS     0.15E+00   15.8     0.00000984     -5927.7722275955 -1.54E-04
     8 OT DIIS     0.15E+00   15.7     0.00001163     -5927.7722910413 -6.34E-05
     9 OT DIIS     0.15E+00   15.7     0.00000707     -5927.7723638220 -7.28E-05
    10 OT DIIS     0.15E+00   15.7     0.00000807     -5927.7723918042 -2.80E-05
    11 OT DIIS     0.15E+00   15.8     0.00000420     -5927.7724178826 -2.61E-05
    12 OT DIIS     0.15E+00   15.8     0.00000449     -5927.7724399377 -2.21E-05
    13 OT DIIS     0.15E+00   15.8     0.00000420     -5927.7724550503 -1.51E-05
    14 OT DIIS     0.15E+00   15.8     0.00000326     -5927.7724645529 -9.50E-06
    15 OT DIIS     0.15E+00   15.8     0.00000269     -5927.7724779459 -1.34E-05
    16 OT DIIS     0.15E+00   15.8     0.00000259     -5927.7724843533 -6.41E-06
    17 OT DIIS     0.15E+00   15.8     0.00000210     -5927.7724907292 -6.38E-06
    18 OT DIIS     0.15E+00   15.8     0.00000200     -5927.7724962805 -5.55E-06
    19 OT DIIS     0.15E+00   15.8     0.00000224     -5927.7724999026 -3.62E-06
    20 OT DIIS     0.15E+00   15.7     0.00000159     -5927.7725024041 -2.50E-06
    21 OT DIIS     0.15E+00   15.6     0.00000164     -5927.7725053201 -2.92E-06
    22 OT DIIS     0.15E+00   15.7     0.00000134     -5927.7725072082 -1.89E-06
    23 OT DIIS     0.15E+00   15.7     0.00000132     -5927.7725084928 -1.28E-06
    24 OT DIIS     0.15E+00   15.7     0.00000101     -5927.7725101211 -1.63E-06
    25 OT DIIS     0.15E+00   15.7     0.00000097     -5927.7725113656 -1.24E-06

  *** SCF run converged in    25 steps ***


  Electronic density on regular grids:      -3474.0000000014       -0.0000000014
  Core density on regular grids:             3473.9999999952       -0.0000000048
  Total charge density on r-space grids:       -0.0000000063
  Total charge density g-space grids:          -0.0000000052

  Overlap energy of the core charge distribution:               0.00000032654091
  Self energy of the core charge distribution:             -13965.50565932552126
  Core Hamiltonian energy:                                   3144.05106689044624
  Hartree energy:                                            6203.50743530864111
  Exchange-correlation energy:                              -1307.35717444902207
  Dispersion energy:                                           -2.46818011671405

  Total energy:                                             -5927.77251136562791

  outer SCF iter =    1 RMS gradient =   0.97E-06 energy =      -5927.7725113656
  outer SCF loop converged in   1 iterations or   25 steps


 ENERGY| Total FORCE_EVAL ( QS ) energy (a.u.):            -5927.772512486779306


 --------  Informations at step =     4 ------------
  Optimization Method        =                 BFGS
  Total Energy               =     -5927.7725124868
  Real energy change         =        -0.0007200271
  Predicted change in energy =        -0.0005547097
  Scaling factor             =         0.0000000000
  Step size                  =         0.0610209889
  Trust radius               =         0.4724315332
  Decrease in energy         =                  YES
  Used time                  =              420.582

  Convergence check :
  Max. step size             =         0.0610209889
  Conv. limit for step size  =         0.0030000000
  Convergence in step size   =                   NO
  RMS step size              =         0.0047926199
  Conv. limit for RMS step   =         0.0015000000
  Convergence in RMS step    =                   NO
  Max. gradient              =         0.0015813244
  Conv. limit for gradients  =         0.0004500000
  Conv. for gradients        =                   NO
  RMS gradient               =         0.0001241351
  Conv. limit for RMS grad.  =         0.0003000000
  Conv. in RMS gradients     =                  YES
 ---------------------------------------------------

 --------------------------
 OPTIMIZATION STEP:      5
 --------------------------

 Number of electrons:                                                       3474
 Number of occupied orbitals:                                               1737
 Number of molecular orbitals:                                              1737

 Number of orbital functions:                                               7524
 Number of independent orbital functions:                                   7524

 Extrapolation method: ASPC


 SCF WAVEFUNCTION OPTIMIZATION

  ----------------------------------- OT ---------------------------------------
  Minimizer      : DIIS                : direct inversion
                                         in the iterative subspace
                                         using   8 DIIS vectors
                                         safer DIIS on
  Preconditioner : FULL_KINETIC        : inversion of T + eS
  Precond_solver : DEFAULT
  stepsize       :    0.15000000                  energy_gap     :    0.00010000
  eps_taylor     :   0.10000E-15                  max_taylor     :             4
  ----------------------------------- OT ---------------------------------------

  Step     Update method      Time    Convergence         Total energy    Change
  ------------------------------------------------------------------------------
     1 OT DIIS     0.15E+00   15.0     0.00002860     -5927.7690863408 -5.93E+03
     2 OT DIIS     0.15E+00   15.7     0.00002589     -5927.7703637334 -1.28E-03
     3 OT DIIS     0.15E+00   15.7     0.00006486     -5927.7703544160  9.32E-06
     4 OT DIIS     0.15E+00   15.7     0.00002209     -5927.7715501699 -1.20E-03
     5 OT DIIS     0.15E+00   15.7     0.00002112     -5927.7717584251 -2.08E-04
     6 OT DIIS     0.15E+00   15.7     0.00001716     -5927.7720855987 -3.27E-04
     7 OT DIIS     0.15E+00   15.8     0.00001282     -5927.7723301366 -2.45E-04
     8 OT DIIS     0.15E+00   15.7     0.00001140     -5927.7724335096 -1.03E-04
     9 OT DIIS     0.15E+00   15.8     0.00000743     -5927.7725350008 -1.01E-04
    10 OT DIIS     0.15E+00   15.8     0.00001088     -5927.7725790580 -4.41E-05
    11 OT DIIS     0.15E+00   15.8     0.00000499     -5927.7726068712 -2.78E-05
    12 OT DIIS     0.15E+00   15.8     0.00000619     -5927.7726399068 -3.30E-05
    13 OT DIIS     0.15E+00   15.8     0.00000500     -5927.7726559193 -1.60E-05
    14 OT DIIS     0.15E+00   15.8     0.00000402     -5927.7726713807 -1.55E-05
    15 OT DIIS     0.15E+00   15.7     0.00000338     -5927.7726848071 -1.34E-05
    16 OT DIIS     0.15E+00   15.7     0.00000271     -5927.7726966288 -1.18E-05
    17 OT DIIS     0.15E+00   15.7     0.00000267     -5927.7727029839 -6.36E-06
    18 OT DIIS     0.15E+00   15.7     0.00000232     -5927.7727102542 -7.27E-06
    19 OT DIIS     0.15E+00   15.7     0.00000235     -5927.7727145681 -4.31E-06
    20 OT DIIS     0.15E+00   15.7     0.00000186     -5927.7727180343 -3.47E-06
    21 OT DIIS     0.15E+00   15.6     0.00000198     -5927.7727210375 -3.00E-06
    22 OT DIIS     0.15E+00   15.7     0.00000166     -5927.7727230800 -2.04E-06
    23 OT DIIS     0.15E+00   15.7     0.00000134     -5927.7727246966 -1.62E-06
    24 OT DIIS     0.15E+00   15.7     0.00000125     -5927.7727261241 -1.43E-06
    25 OT DIIS     0.15E+00   15.7     0.00000112     -5927.7727274286 -1.30E-06
    26 OT DIIS     0.15E+00   15.7     0.00000099     -5927.7727283924 -9.64E-07

  *** SCF run converged in    26 steps ***


  Electronic density on regular grids:      -3474.0000000013       -0.0000000013
  Core density on regular grids:             3473.9999999951       -0.0000000049
  Total charge density on r-space grids:       -0.0000000062
  Total charge density g-space grids:          -0.0000000052

  Overlap energy of the core charge distribution:               0.00000032660045
  Self energy of the core charge distribution:             -13965.50565932552126
  Core Hamiltonian energy:                                   3144.04863492162303
  Hartree energy:                                            6203.50892340601968
  Exchange-correlation energy:                              -1307.35641022789832
  Dispersion energy:                                           -2.46821749326877

  Total energy:                                             -5927.77272839244597

  outer SCF iter =    1 RMS gradient =   0.99E-06 energy =      -5927.7727283924
  outer SCF loop converged in   1 iterations or   26 steps


 ENERGY| Total FORCE_EVAL ( QS ) energy (a.u.):            -5927.772729639716999


 --------  Informations at step =     5 ------------
  Optimization Method        =                 BFGS
  Total Energy               =     -5927.7727296397
  Real energy change         =        -0.0002171529
  Predicted change in energy =        -0.0001168587
  Scaling factor             =         0.0000000000
  Step size                  =         0.0283154923
  Trust radius               =         0.4724315332
  Decrease in energy         =                  YES
  Used time                  =              436.905

  Convergence check :
  Max. step size             =         0.0283154923
  Conv. limit for step size  =         0.0030000000
  Convergence in step size   =                   NO
  RMS step size              =         0.0021808969
  Conv. limit for RMS step   =         0.0015000000
  Convergence in RMS step    =                   NO
  Max. gradient              =         0.0017071784
  Conv. limit for gradients  =         0.0004500000
  Conv. for gradients        =                   NO
  RMS gradient               =         0.0001351665
  Conv. limit for RMS grad.  =         0.0003000000
  Conv. in RMS gradients     =                  YES
 ---------------------------------------------------

 --------------------------
 OPTIMIZATION STEP:      6
 --------------------------

 Number of electrons:                                                       3474
 Number of occupied orbitals:                                               1737
 Number of molecular orbitals:                                              1737

 Number of orbital functions:                                               7524
 Number of independent orbital functions:                                   7524

 Extrapolation method: ASPC


 SCF WAVEFUNCTION OPTIMIZATION

  ----------------------------------- OT ---------------------------------------
  Minimizer      : DIIS                : direct inversion
                                         in the iterative subspace
                                         using   8 DIIS vectors
                                         safer DIIS on
  Preconditioner : FULL_KINETIC        : inversion of T + eS
  Precond_solver : DEFAULT
  stepsize       :    0.15000000                  energy_gap     :    0.00010000
  eps_taylor     :   0.10000E-15                  max_taylor     :             4
  ----------------------------------- OT ---------------------------------------

  Step     Update method      Time    Convergence         Total energy    Change
  ------------------------------------------------------------------------------
     1 OT DIIS     0.15E+00   14.9     0.00002937     -5927.7691583448 -5.93E+03
     2 OT DIIS     0.15E+00   15.6     0.00002404     -5927.7705511737 -1.39E-03
     3 OT DIIS     0.15E+00   15.6     0.00006674     -5927.7707242825 -1.73E-04
     4 OT DIIS     0.15E+00   15.6     0.00002567     -5927.7719287286 -1.20E-03
     5 OT DIIS     0.15E+00   15.7     0.00002005     -5927.7721672760 -2.39E-04
     6 OT DIIS     0.15E+00   15.7     0.00001650     -5927.7725409523 -3.74E-04
     7 OT DIIS     0.15E+00   15.7     0.00001367     -5927.7727752774 -2.34E-04
     8 OT DIIS     0.15E+00   15.7     0.00001267     -5927.7728678751 -9.26E-05
     9 OT DIIS     0.15E+00   15.7     0.00000790     -5927.7729711640 -1.03E-04
    10 OT DIIS     0.15E+00   15.7     0.00000972     -5927.7730171527 -4.60E-05
    11 OT DIIS     0.15E+00   15.7     0.00000548     -5927.7730455172 -2.84E-05
    12 OT DIIS     0.15E+00   15.7     0.00000526     -5927.7730771266 -3.16E-05
    13 OT DIIS     0.15E+00   15.7     0.00000508     -5927.7730992946 -2.22E-05
    14 OT DIIS     0.15E+00   15.7     0.00000430     -5927.7731130204 -1.37E-05
    15 OT DIIS     0.15E+00   15.7     0.00000339     -5927.7731289544 -1.59E-05
    16 OT DIIS     0.15E+00   15.7     0.00000305     -5927.7731422146 -1.33E-05
    17 OT DIIS     0.15E+00   15.7     0.00000258     -5927.7731506723 -8.46E-06
    18 OT DIIS     0.15E+00   15.7     0.00000265     -5927.7731597867 -9.11E-06
    19 OT DIIS     0.15E+00   15.7     0.00000236     -5927.7731662952 -6.51E-06
    20 OT DIIS     0.15E+00   15.7     0.00000212     -5927.7731708783 -4.58E-06
    21 OT DIIS     0.15E+00   15.6     0.00000193     -5927.7731758595 -4.98E-06
    22 OT DIIS     0.15E+00   15.7     0.00000180     -5927.7731795720 -3.71E-06
    23 OT DIIS     0.15E+00   15.7     0.00000163     -5927.7731821517 -2.58E-06
    24 OT DIIS     0.15E+00   15.7     0.00000142     -5927.7731850418 -2.89E-06
    25 OT DIIS     0.15E+00   15.7     0.00000133     -5927.7731878878 -2.85E-06
    26 OT DIIS     0.15E+00   15.7     0.00000125     -5927.7731900646 -2.18E-06
    27 OT DIIS     0.15E+00   15.7     0.00000128     -5927.7731926874 -2.62E-06
    28 OT DIIS     0.15E+00   15.7     0.00000112     -5927.7731949448 -2.26E-06
    29 OT DIIS     0.15E+00   15.7     0.00000106     -5927.7731970882 -2.14E-06
    30 OT DIIS     0.15E+00   15.7     0.00000105     -5927.7731993176 -2.23E-06

  Leaving inner SCF loop after reaching    30 steps.


  Electronic density on regular grids:      -3474.0000000015       -0.0000000015
  Core density on regular grids:             3473.9999999952       -0.0000000048
  Total charge density on r-space grids:       -0.0000000063
  Total charge density g-space grids:          -0.0000000053

  Overlap energy of the core charge distribution:               0.00000032692791
  Self energy of the core charge distribution:             -13965.50565932552126
  Core Hamiltonian energy:                                   3144.06711240176082
  Hartree energy:                                            6203.49628180747914
  Exchange-correlation energy:                              -1307.36247049360964
  Dispersion energy:                                           -2.46846403463823

  Total energy:                                             -5927.77319931760212

  outer SCF iter =    1 RMS gradient =   0.11E-05 energy =      -5927.7731993176

  ----------------------------------- OT ---------------------------------------
  Minimizer      : DIIS                : direct inversion
                                         in the iterative subspace
                                         using   8 DIIS vectors
                                         safer DIIS on
  Preconditioner : FULL_KINETIC        : inversion of T + eS
  Precond_solver : DEFAULT
  stepsize       :    0.15000000                  energy_gap     :    0.00010000
  eps_taylor     :   0.10000E-15                  max_taylor     :             4
  ----------------------------------- OT ---------------------------------------

  Step     Update method      Time    Convergence         Total energy    Change
  ------------------------------------------------------------------------------
     1 OT DIIS     0.15E+00   34.4     0.00000103     -5927.7732015458 -2.23E-06
     2 OT DIIS     0.15E+00   15.4     0.00000349     -5927.7732014644  8.14E-08
     3 OT DIIS     0.15E+00   15.4     0.00000093     -5927.7732031830 -1.72E-06

  *** SCF run converged in     3 steps ***


  Electronic density on regular grids:      -3474.0000000014       -0.0000000014
  Core density on regular grids:             3473.9999999952       -0.0000000048
  Total charge density on r-space grids:       -0.0000000062
  Total charge density g-space grids:          -0.0000000052

  Overlap energy of the core charge distribution:               0.00000032692791
  Self energy of the core charge distribution:             -13965.50565932552126
  Core Hamiltonian energy:                                   3144.06710278811397
  Hartree energy:                                            6203.49628364103501
  Exchange-correlation energy:                              -1307.36246657887568
  Dispersion energy:                                           -2.46846403463823

  Total energy:                                             -5927.77320318295824

  outer SCF iter =    2 RMS gradient =   0.93E-06 energy =      -5927.7732031830
  outer SCF loop converged in   2 iterations or   33 steps


 ENERGY| Total FORCE_EVAL ( QS ) energy (a.u.):            -5927.773203653839118


 --------  Informations at step =     6 ------------
  Optimization Method        =                 BFGS
  Total Energy               =     -5927.7732036538
  Real energy change         =        -0.0004740141
  Predicted change in energy =        -0.0004081532
  Scaling factor             =         0.0000000000
  Step size                  =         0.1265513176
  Trust radius               =         0.4724315332
  Decrease in energy         =                  YES
  Used time                  =              549.348

  Convergence check :
  Max. step size             =         0.1265513176
  Conv. limit for step size  =         0.0030000000
  Convergence in step size   =                   NO
  RMS step size              =         0.0074633614
  Conv. limit for RMS step   =         0.0015000000
  Convergence in RMS step    =                   NO
  Max. gradient              =         0.0022025950
  Conv. limit for gradients  =         0.0004500000
  Conv. for gradients        =                   NO
  RMS gradient               =         0.0001654688
  Conv. limit for RMS grad.  =         0.0003000000
  Conv. in RMS gradients     =                  YES
 ---------------------------------------------------

 --------------------------
 OPTIMIZATION STEP:      7
 --------------------------

 Number of electrons:                                                       3474
 Number of occupied orbitals:                                               1737
 Number of molecular orbitals:                                              1737

 Number of orbital functions:                                               7524
 Number of independent orbital functions:                                   7524

 Extrapolation method: ASPC


 SCF WAVEFUNCTION OPTIMIZATION

  ----------------------------------- OT ---------------------------------------
  Minimizer      : DIIS                : direct inversion
                                         in the iterative subspace
                                         using   8 DIIS vectors
                                         safer DIIS on
  Preconditioner : FULL_KINETIC        : inversion of T + eS
  Precond_solver : DEFAULT
  stepsize       :    0.15000000                  energy_gap     :    0.00010000
  eps_taylor     :   0.10000E-15                  max_taylor     :             4
  ----------------------------------- OT ---------------------------------------

  Step     Update method      Time    Convergence         Total energy    Change
  ------------------------------------------------------------------------------
     1 OT DIIS     0.15E+00   15.0     0.00003522     -5927.7675797701 -5.93E+03
     2 OT DIIS     0.15E+00   15.7     0.00002661     -5927.7696209451 -2.04E-03
     3 OT DIIS     0.15E+00   15.7     0.00006596     -5927.7705949208 -9.74E-04
     4 OT DIIS     0.15E+00   15.7     0.00002159     -5927.7718282556 -1.23E-03
     5 OT DIIS     0.15E+00   15.7     0.00003076     -5927.7721452524 -3.17E-04
     6 OT DIIS     0.15E+00   15.7     0.00002137     -5927.7725952394 -4.50E-04
     7 OT DIIS     0.15E+00   15.7     0.00001533     -5927.7729053770 -3.10E-04
     8 OT DIIS     0.15E+00   15.7     0.00001445     -5927.7730430884 -1.38E-04
     9 OT DIIS     0.15E+00   15.8     0.00000912     -5927.7731757515 -1.33E-04
    10 OT DIIS     0.15E+00   15.7     0.00001100     -5927.7732538896 -7.81E-05
    11 OT DIIS     0.15E+00   15.7     0.00000701     -5927.7732817770 -2.79E-05
    12 OT DIIS     0.15E+00   15.7     0.00000626     -5927.7733333857 -5.16E-05
    13 OT DIIS     0.15E+00   15.7     0.00000532     -5927.7733627721 -2.94E-05
    14 OT DIIS     0.15E+00   15.7     0.00000481     -5927.7733871313 -2.44E-05
    15 OT DIIS     0.15E+00   15.7     0.00000397     -5927.7734073355 -2.02E-05
    16 OT DIIS     0.15E+00   15.7     0.00000368     -5927.7734260083 -1.87E-05
    17 OT DIIS     0.15E+00   15.7     0.00000325     -5927.7734362439 -1.02E-05
    18 OT DIIS     0.15E+00   15.7     0.00000315     -5927.7734488064 -1.26E-05
    19 OT DIIS     0.15E+00   15.7     0.00000295     -5927.7734574159 -8.61E-06
    20 OT DIIS     0.15E+00   15.8     0.00000252     -5927.7734631220 -5.71E-06
    21 OT DIIS     0.15E+00   15.7     0.00000248     -5927.7734699700 -6.85E-06
    22 OT DIIS     0.15E+00   15.7     0.00000203     -5927.7734749576 -4.99E-06
    23 OT DIIS     0.15E+00   15.7     0.00000193     -5927.7734790356 -4.08E-06
    24 OT DIIS     0.15E+00   15.7     0.00000160     -5927.7734829332 -3.90E-06
    25 OT DIIS     0.15E+00   15.7     0.00000151     -5927.7734874431 -4.51E-06
    26 OT DIIS     0.15E+00   15.7     0.00000155     -5927.7734903408 -2.90E-06
    27 OT DIIS     0.15E+00   15.7     0.00000138     -5927.7734943930 -4.05E-06
    28 OT DIIS     0.15E+00   15.7     0.00000145     -5927.7734976834 -3.29E-06
    29 OT DIIS     0.15E+00   15.7     0.00000128     -5927.7735002611 -2.58E-06
    30 OT DIIS     0.15E+00   15.7     0.00000128     -5927.7735035999 -3.34E-06

  Leaving inner SCF loop after reaching    30 steps.


  Electronic density on regular grids:      -3474.0000000017       -0.0000000017
  Core density on regular grids:             3473.9999999952       -0.0000000048
  Total charge density on r-space grids:       -0.0000000065
  Total charge density g-space grids:          -0.0000000056

  Overlap energy of the core charge distribution:               0.00000032699616
  Self energy of the core charge distribution:             -13965.50565932552126
  Core Hamiltonian energy:                                   3144.07361935729114
  Hartree energy:                                            6203.49173331576003
  Exchange-correlation energy:                              -1307.36452952470745
  Dispersion energy:                                           -2.46866774970102

  Total energy:                                             -5927.77350359988304

[...]
 flops     6 x     9 x    13          28992175992       0.0%    100.0%      0.0%
 flops    13 x     9 x     6          28992175992       0.0%    100.0%      0.0%
 flops     6 x    32 x     6          39827054592       0.0%    100.0%      0.0%
 flops    13 x    32 x    32         165622579200       0.0%    100.0%      0.0%
 flops    13 x     6 x   416         315387161856       0.0%    100.0%      0.0%
 flops     6 x    13 x   416         315489892224       0.0%    100.0%      0.0%
 flops    13 x     6 x   425         322210441800       0.0%    100.0%      0.0%
 flops     6 x    13 x   425         322315394700       0.0%    100.0%      0.0%
 flops    13 x     6 x   448         679295425536       0.0%    100.0%      0.0%
 flops     6 x    13 x   448         679516690944       0.0%    100.0%      0.0%
 flops   416 x   416 x   416        3298641182720     100.0%      0.0%      0.0%
 flops   416 x   416 x   425        3370006016000     100.0%      0.0%      0.0%
 flops   416 x   425 x   416        3370006016000     100.0%      0.0%      0.0%
 flops   425 x   416 x   416        3370006016000     100.0%      0.0%      0.0%
 flops   416 x   425 x   425        3442914800000     100.0%      0.0%      0.0%
 flops   425 x   416 x   425        3442914800000     100.0%      0.0%      0.0%
 flops   425 x   425 x   416        3442914800000     100.0%      0.0%      0.0%
 flops   425 x   425 x   425        3517400937500     100.0%      0.0%      0.0%
 flops    13 x     9 x    13        5151451190652       0.0%    100.0%      0.0%
 flops    13 x    32 x     6        5566497790464       0.0%    100.0%      0.0%
 flops     6 x    32 x    13        5566497790464       0.0%    100.0%      0.0%
 flops   416 x   416 x   448        7104765624320     100.0%      0.0%      0.0%
 flops   416 x   448 x   416        7104765624320     100.0%      0.0%      0.0%
 flops   448 x   416 x   416        7104765624320     100.0%      0.0%      0.0%
 flops   416 x   425 x   448        7258474496000     100.0%      0.0%      0.0%
 flops   416 x   448 x   425        7258474496000     100.0%      0.0%      0.0%
 flops   425 x   416 x   448        7258474496000     100.0%      0.0%      0.0%
 flops   425 x   448 x   416        7258474496000     100.0%      0.0%      0.0%
 flops   448 x   416 x   425        7258474496000     100.0%      0.0%      0.0%
 flops   448 x   425 x   416        7258474496000     100.0%      0.0%      0.0%
 flops   425 x   425 x   448        7415508800000     100.0%      0.0%      0.0%
 flops   425 x   448 x   425        7415508800000     100.0%      0.0%      0.0%
 flops   448 x   425 x   425        7415508800000     100.0%      0.0%      0.0%
 flops   448 x   448 x   416       15302572113920     100.0%      0.0%      0.0%
 flops   416 x   448 x   448       15302572113920     100.0%      0.0%      0.0%
 flops   448 x   416 x   448       15302572113920     100.0%      0.0%      0.0%
 flops   448 x   448 x   425       15633637376000     100.0%      0.0%      0.0%
 flops   425 x   448 x   448       15633637376000     100.0%      0.0%      0.0%
 flops   448 x   425 x   448       15633637376000     100.0%      0.0%      0.0%
 flops   416 x   416 x  1878       20175948349440     100.0%      0.0%      0.0%
 flops   416 x   416 x  1884       20240408248320     100.0%      0.0%      0.0%
 flops   416 x   425 x  1878       20612447232000     100.0%      0.0%      0.0%
 flops   425 x   416 x  1878       20612447232000     100.0%      0.0%      0.0%
 flops   416 x   425 x  1884       20678301696000     100.0%      0.0%      0.0%
 flops   425 x   416 x  1884       20678301696000     100.0%      0.0%      0.0%
 flops   425 x   425 x  1878       21058389600000     100.0%      0.0%      0.0%
 flops   425 x   425 x  1884       21125668800000     100.0%      0.0%      0.0%
 flops  1878 x   416 x   416       25024935936000     100.0%      0.0%      0.0%
 flops  1884 x   416 x   416       25104887808000     100.0%      0.0%      0.0%
 flops  1878 x   416 x   425       25566340800000     100.0%      0.0%      0.0%
 flops  1878 x   425 x   416       25566340800000     100.0%      0.0%      0.0%
 flops  1884 x   416 x   425       25648022400000     100.0%      0.0%      0.0%
 flops  1884 x   425 x   416       25648022400000     100.0%      0.0%      0.0%
 flops  1878 x   425 x   425       26119458750000     100.0%      0.0%      0.0%
 flops  1884 x   425 x   425       26202907500000     100.0%      0.0%      0.0%
 flops   448 x   448 x   448       32959386091520     100.0%      0.0%      0.0%
 flops   416 x   448 x  1878       43455888752640     100.0%      0.0%      0.0%
 flops   448 x   416 x  1878       43455888752640     100.0%      0.0%      0.0%
 flops   416 x   448 x  1884       43594725457920     100.0%      0.0%      0.0%
 flops   448 x   416 x  1884       43594725457920     100.0%      0.0%      0.0%
 flops   425 x   448 x  1878       44396040192000     100.0%      0.0%      0.0%
 flops   448 x   425 x  1878       44396040192000     100.0%      0.0%      0.0%
 flops   425 x   448 x  1884       44537880576000     100.0%      0.0%      0.0%
 flops   448 x   425 x  1884       44537880576000     100.0%      0.0%      0.0%
 flops  1878 x   416 x  1878       48475750901760     100.0%      0.0%      0.0%
 flops  1878 x   416 x  1884       48630625505280     100.0%      0.0%      0.0%
 flops  1884 x   416 x  1878       48630625505280     100.0%      0.0%      0.0%
 flops  1884 x   416 x  1884       48785994915840     100.0%      0.0%      0.0%
 flops  1878 x   425 x  1878       49524505128000     100.0%      0.0%      0.0%
 flops  1878 x   425 x  1884       49682730384000     100.0%      0.0%      0.0%
 flops  1884 x   425 x  1878       49682730384000     100.0%      0.0%      0.0%
 flops  1884 x   425 x  1884       49841461152000     100.0%      0.0%      0.0%
 flops  1878 x   448 x   416       53899862016000     100.0%      0.0%      0.0%
 flops  1878 x   416 x   448       53899862016000     100.0%      0.0%      0.0%
 flops  1884 x   416 x   448       54072066048000     100.0%      0.0%      0.0%
 flops  1884 x   448 x   416       54072066048000     100.0%      0.0%      0.0%
 flops  1878 x   448 x   425       55065964800000     100.0%      0.0%      0.0%
 flops  1878 x   425 x   448       55065964800000     100.0%      0.0%      0.0%
 flops  1884 x   425 x   448       55241894400000     100.0%      0.0%      0.0%
 flops  1884 x   448 x   425       55241894400000     100.0%      0.0%      0.0%
 flops    13 x    13 x   416       56229616704768       0.0%    100.0%      0.0%
 flops    13 x    13 x   425       57446122835400       0.0%    100.0%      0.0%
 flops   448 x   448 x  1878       93597298851840     100.0%      0.0%      0.0%
 flops   448 x   448 x  1884       93896331755520     100.0%      0.0%      0.0%
 flops  1878 x   448 x  1878      104409309634560     100.0%      0.0%      0.0%
 flops  1878 x   448 x  1884      104742885703680     100.0%      0.0%      0.0%
 flops  1884 x   448 x  1878      104742885703680     100.0%      0.0%      0.0%
 flops  1884 x   448 x  1884      105077527511040     100.0%      0.0%      0.0%
 flops  1878 x   448 x   448      116092010496000     100.0%      0.0%      0.0%
 flops  1884 x   448 x   448      116462911488000     100.0%      0.0%      0.0%
 flops    13 x    13 x   448      121109943671808       0.0%    100.0%      0.0%
 flops    13 x    32 x    13      989078628605184       0.0%    100.0%      0.0%
 flops inhomo. stacks                           0       0.0%      0.0%      0.0%
 flops total                         3.874060E+15      67.9%     32.1%      0.0%
 flops max/rank                    256.789263E+12      66.9%     33.1%      0.0%
 matmuls inhomo. stacks                         0       0.0%      0.0%      0.0%
 matmuls total                        97077602822       0.0%    100.0%      0.0%
 number of processed stacks             104575528       3.8%     96.2%      0.0%
 average stack size                                     1.0     964.8       0.0
 marketing flops                     5.222405E+15
 -------------------------------------------------------------------------------
 # multiplications                          75289
 max memory usage/rank               2.012049E+09
 # max total images/rank                        1
 # max 3D layers                                1
 # MPI messages exchanged                 7227744
 MPI messages size (bytes):
  total size                        39.824233E+12
  min size                           0.000000E+00
  max size                          28.395648E+06
  average size                       5.509912E+06
 MPI breakdown and total messages size (bytes):
             size <=      128               26400                        0
       128 < size <=     8192                   0                        0
      8192 < size <=    32768                   0                        0
     32768 < size <=   131072                2400                265809600
    131072 < size <=  4194304             3123360            4711852483920
   4194304 < size <= 16777216             3717288           26655263475792
  16777216 < size                          358296            8449967016576
 -------------------------------------------------------------------------------

 MEMORY| Estimated peak process memory [MiB]                                1919

 -------------------------------------------------------------------------------
 -                                                                             -
 -                         MESSAGE PASSING PERFORMANCE                         -
 -                                                                             -
 -------------------------------------------------------------------------------

 ROUTINE             CALLS      AVE VOLUME [Bytes]
 MP_Group             2281
 MP_Bcast            29151                  16352.
 MP_Allreduce       490173                    254.
 MP_Sync                 4
 MP_Alltoall        323634               36619842.
 MP_SendRecv          7680                  25775.
 MP_ISendRecv       243510                 730080.
 MP_Wait           4038783
 MP_ISend          1335752                2361881.
 MP_IRecv          1335752                2366893.
 MP_Recv             19227                1427857.
 MP_Memory         3313320
 -------------------------------------------------------------------------------


 -------------------------------------------------------------------------------
 -                                                                             -
 -                           R E F E R E N C E S                               -
 -                                                                             -
 -------------------------------------------------------------------------------
 
 CP2K version 7.0 (Development Version), the CP2K developers group (2018).
 CP2K is freely available from https://www.cp2k.org/ .

 Schuett, Ole; Messmer, Peter; Hutter, Juerg; VandeVondele, Joost. 
 Electronic Structure Calculations on Graphics Processing Units, John Wiley & Sons, Ltd, 173-190 (2016). 
 GPU-Accelerated Sparse Matrix-Matrix Multiplication for Linear Scaling Density Functional Theory.
 http://dx.doi.org/10.1002/9781118670712.ch8


 Borstnik, U; VandeVondele, J; Weber, V; Hutter, J. 
 PARALLEL COMPUTING, 40 (5-6), 47-58 (2014). 
 Sparse matrix multiplication: The distributed block-compressed sparse
 row library.
 http://dx.doi.org/10.1016/j.parco.2014.03.012


 Hutter, J; Iannuzzi, M; Schiffmann, F; VandeVondele, J. 
 WILEY INTERDISCIPLINARY REVIEWS-COMPUTATIONAL MOLECULAR SCIENCE, 4 (1), 15-25 (2014). 
 CP2K: atomistic simulations of condensed matter systems.
 http://dx.doi.org/10.1002/wcms.1159


 Grimme, S; Ehrlich, S; Goerigk, L. 
 JOURNAL OF COMPUTATIONAL CHEMISTRY, 32, 1456 (2011). 
 Effect of the damping function in dispersion corrected density functional theory.
 http://dx.doi.org/10.1002/jcc.21759


 Grimme, S; Antony, J; Ehrlich, S; Krieg, H. 
 JOURNAL OF CHEMICAL PHYSICS, 132 (15), 154104 (2010). 
 A consistent and accurate ab initio parametrization of density
 functional dispersion correction (DFT-D) for the 94 elements H-Pu.
 http://dx.doi.org/10.1063/1.3382344


 VandeVondele, J; Hutter, J. 
 JOURNAL OF CHEMICAL PHYSICS, 127 (11), 114105 (2007). 
 Gaussian basis sets for accurate calculations on molecular systems in
 gas and condensed phases.
 http://dx.doi.org/10.1063/1.2770708


 Krack, M. 
 THEORETICAL CHEMISTRY ACCOUNTS, 114 (1-3), 145-152 (2005). 
 Pseudopotentials for H to Kr optimized for gradient-corrected
 exchange-correlation functionals.
 http://dx.doi.org/10.1007/s00214-005-0655-y


 VandeVondele, J; Krack, M; Mohamed, F; Parrinello, M; Chassaing, T;
 Hutter, J. COMPUTER PHYSICS COMMUNICATIONS, 167 (2), 103-128 (2005). 
 QUICKSTEP: Fast and accurate density functional calculations using a
 mixed Gaussian and plane waves approach.
 http://dx.doi.org/10.1016/j.cpc.2004.12.014


 Frigo, M; Johnson, SG. 
 PROCEEDINGS OF THE IEEE, 93 (2), 216-231 (2005). 
 The design and implementation of FFTW3.
 http://dx.doi.org/10.1109/JPROC.2004.840301


 Kolafa, J. 
 JOURNAL OF COMPUTATIONAL CHEMISTRY, 25 (3), 335-342 (2004). 
 Time-reversible always stable predictor-corrector method for molecular dynamics of polarizable molecules.
 http://dx.doi.org/10.1002/jcc.10385


 VandeVondele, J; Hutter, J. 
 JOURNAL OF CHEMICAL PHYSICS, 118 (10), 4365-4369 (2003). 
 An efficient orbital transformation method for electronic structure
 calculations.
 http://dx.doi.org/10.1063/1.1543154


 Hartwigsen, C; Goedecker, S; Hutter, J. 
 PHYSICAL REVIEW B, 58 (7), 3641-3662 (1998). 
 Relativistic separable dual-space Gaussian pseudopotentials from H to Rn.
 http://dx.doi.org/10.1103/PhysRevB.58.3641


 Lippert, G; Hutter, J; Parrinello, M. 
 MOLECULAR PHYSICS, 92 (3), 477-487 (1997). 
 A hybrid Gaussian and plane wave density functional scheme.
 http://dx.doi.org/10.1080/002689797170220


 Perdew, JP; Burke, K; Ernzerhof, M. 
 PHYSICAL REVIEW LETTERS, 77 (18), 3865-3868 (1996). 
 Generalized gradient approximation made simple.
 http://dx.doi.org/10.1103/PhysRevLett.77.3865


 Goedecker, S; Teter, M; Hutter, J. 
 PHYSICAL REVIEW B, 54 (3), 1703-1710 (1996). 
 Separable dual-space Gaussian pseudopotentials.
 http://dx.doi.org/10.1103/PhysRevB.54.1703


 -------------------------------------------------------------------------------
 -                                                                             -
 -                                T I M I N G                                  -
 -                                                                             -
 -------------------------------------------------------------------------------
 SUBROUTINE                       CALLS  ASD         SELF TIME        TOTAL TIME
                                MAXIMUM       AVERAGE  MAXIMUM  AVERAGE  MAXIMUM
 CP2K                                 1  1.0     0.08     0.08 65800.12 65800.69
 cp_geo_opt                           1  2.0     0.00     0.00 65798.50 65799.08
 geoopt_bfgs                          1  3.0     0.12     0.16 65798.50 65799.08
 cp_eval_at                         129  4.0     0.01     0.02 65733.11 65733.70
 qs_forces                          128  5.0     0.02     0.02 65564.08 65564.66
 qs_energies                        129  6.0     0.01     0.02 64059.01 64062.21
 scf_env_do_scf                     129  7.0     0.01     0.03 62832.42 62833.46
 scf_env_do_scf_inner_loop         3930  8.0     0.16     0.33 60161.13 60311.82
 rebuild_ks_matrix                 4058  9.9     0.01     0.01 40080.93 40161.40
 qs_ks_build_kohn_sham_matrix      4058 10.9     0.55     0.68 40080.92 40161.39
 qs_ks_update_qs_env               4130  9.0     0.03     0.04 38740.81 38818.74
 pw_transfer                      77236 13.6     8.92    11.73 30589.48 30891.81
 fft_wrap_pw1pw2                  69120 14.6     1.08     1.45 30236.72 30536.08
 fft_wrap_pw1pw2_150              44769 15.7  2927.77  3073.95 29188.24 29301.67
 qs_vxc_create                     4058 11.9     0.12     0.15 24320.55 24367.06
 xc_vxc_pw_create                  4058 12.9   357.91   379.14 24320.43 24366.94
 fft3d_ps                         69120 16.6 12009.83 12511.63 22224.60 22845.75
 qs_rho_update_rho                 4059  9.0     0.04     0.06 12990.16 13106.77
 calculate_rho_elec                4059 10.0  5159.47  5298.63 12990.12 13106.73
 xc_rho_set_and_dset_create        4058 13.9   139.05   144.91 12153.43 12222.19
 dbcsr_multiply_generic           75289 14.0     5.32     5.72 11832.64 11958.99
 qs_scf_new_mos                    3930  9.0     0.04     0.06 10736.92 10894.53
 qs_scf_loop_do_ot                 3930 10.0     0.03     0.04 10736.88 10894.50
 sum_up_and_integrate              4058 11.9    84.74    87.97 10184.82 10190.03
 integrate_v_rspace                4058 12.9  5264.76  5378.25 10100.08 10107.31
 ot_scf_mini                       3930 11.0     0.22     0.25  9856.46 10004.53
 multiply_cannon                  75289 15.0    11.39    13.00  8962.06  9265.50
 multiply_cannon_multrec         301156 16.0  7150.70  7505.05  7152.04  7506.46
 density_rs2pw                     4059 11.0     0.25     0.33  7263.98  7416.12
 ot_mini                           3930 12.0     0.02     0.02  6594.13  6748.11
 x_to_yz                          36523 18.1  4780.73  4893.34  6119.58  6558.15
 yz_to_x                          32597 17.1  2687.97  2797.17  4093.28  4655.29
 potential_pw2rs                   4058 13.9    12.26    12.79  4575.16  4580.89
 qs_ot_get_derivative              3930 13.0     0.04     0.05  4182.50  4331.85
 mp_alltoall_z22v                 69120 18.6  2744.16  4020.50  2744.16  4020.50
 pw_scatter_p                     36523 17.1  2716.71  2841.67  2716.71  2841.67
 rs_pw_transfer                   32725 13.4     0.70     0.80  2632.75  2753.60
 qs_ot_get_derivative_taylor       3678 14.0     0.16     0.23  2593.36  2732.80
 init_scf_loop                      200  8.0     0.01     0.01  2528.15  2529.18
 ot_diis_step                      3930 13.0     0.25     0.30  2404.94  2404.97
 pw_gather_p                      32597 16.1  2263.14  2403.22  2263.14  2403.22
 xc_functional_eval                4058 14.9     0.06     0.08  2164.70  2225.15
 pbe_lda_eval                      4058 15.9  2164.63  2225.08  2164.63  2225.08
 apply_preconditioner_dbcsr        4130 14.0     0.01     0.02  2121.50  2153.39
 apply_single                      4130 15.0     0.02     0.02  2121.49  2153.38
 make_m2s                        150578 15.0     4.14     4.97  1998.10  2023.12
 pw_derive                        24348 14.4  1918.17  1964.16  1918.17  1964.16
 mp_waitall_1                   3906855 17.6  1735.71  1954.57  1735.71  1954.57
 qs_ks_update_qs_env_forces         128  6.0     0.00     0.00  1369.81  1372.25
 make_images                     150578 16.0    19.21    19.95  1279.29  1370.33
 multiply_cannon_metrocomm1      301156 16.0     1.35     1.78  1035.90  1343.36
 -------------------------------------------------------------------------------

 The number of warnings for this run is : 1
 
 -------------------------------------------------------------------------------
  **** **** ******  **  PROGRAM ENDED AT                 2023-06-09 04:45:06.194
 ***** ** ***  *** **   PROGRAM RAN ON                                sebnode123
 **    ****   ******    PROGRAM RAN BY                                    luehrs
 ***** **    ** ** **   PROGRAM PROCESS ID                               1201712
  **** **  *******  **  PROGRAM STOPPED IN /home/luehrs/PhD/Li-S_paper/Li-S-Surf
                                           ace_Reaction/Third_Lithiation_of_S8_S
                                           urface/Third_Lithiation_around_S8/Thi
                                           rd_Lithiation_L2/Third_Lithiation_par
                                           allel/3.S8_p
