 DBCSR| Multiplication driver                                               XSMM
 DBCSR| Multrec recursion limit                                              512
 DBCSR| Multiplication stack size                                           1000
 DBCSR| Maximum elements for images                                    UNLIMITED
 DBCSR| Multiplicative factor virtual images                                   1
 DBCSR| Multiplication size stacks                                             3
 DBCSR| Number of 3D layers                                               SINGLE
 DBCSR| Use MPI memory allocation                                              T
 DBCSR| Use RMA algorithm                                                      F
 DBCSR| Use Communication thread                                               T
 DBCSR| Communication thread load                                             87


  **** **** ******  **  PROGRAM STARTED AT               2023-10-09 19:02:24.984
 ***** ** ***  *** **   PROGRAM STARTED ON                            sebnode131
 **    ****   ******    PROGRAM STARTED BY                                luehrs
 ***** **    ** ** **   PROGRAM PROCESS ID                                377303
  **** **  *******  **  PROGRAM STARTED IN /home/luehrs/PhD/Li-S_paper/Li-S-Surf
                                           ace_Reaction/Third_Lithiation_of_S8_S
                                           urface/Third_Lithiation_around_S8/Thi
                                           rd_Lithiation_L4/Third_Lithiation_par
                                           allel/1.S8_p

 CP2K| version string:                    CP2K version 7.0 (Development Version)
 CP2K| source code revision number:                                             
 CP2K| cp2kflags: libint fftw3 libxc parallel mpi3 scalapack xsmm libderiv_max_a
 CP2K|            m1=8 libint_max_am=9 max_contr=4
 CP2K| is freely available from                            https://www.cp2k.org/
 CP2K| Program compiled at                         Sun Jun 24 14:37:16 CEST 2018
 CP2K| Program compiled on                                            sebstorage
 CP2K| Program compiled for                                Linux-x86-64-gfortran
 CP2K| Data directory path    /home/brehm/Software_Batchnode/2018/Source/cp2k_18
 CP2K| Input file name                                                input1.inp

 GLOBAL| Force Environment number                                              1
 GLOBAL| Basis set file name                                      ./BASIS_MOLOPT
 GLOBAL| Potential file name                                    ./GTH_POTENTIALS
 GLOBAL| MM Potential file name                                     MM_POTENTIAL
 GLOBAL| Coordinate file name              ./Third_lithiation_S8_1.p_relaxed.xyz
 GLOBAL| Method name                                                        CP2K
 GLOBAL| Project name                                                   Li_react
 GLOBAL| Preferred FFT library                                             FFTW3
 GLOBAL| Preferred diagonalization lib.                                       SL
 GLOBAL| Run type                                                        GEO_OPT
 GLOBAL| All-to-all communication in single precision                          F
 GLOBAL| FFTs using library dependent lengths                                  F
 GLOBAL| Global print level                                                  LOW
 GLOBAL| Total number of message passing processes                            16
 GLOBAL| Number of threads for this process                                    1
 GLOBAL| This output is from process                                           0
 GLOBAL| CPU model name :  AMD EPYC 7513 32-Core Processor

 MEMORY| system memory details [Kb]
 MEMORY|                        rank 0           min           max       average
 MEMORY| MemTotal            131916392     131916392     131916392     131916392
 MEMORY| MemFree             116565996     116565996     116565996     116565996
 MEMORY| Buffers                 81432         81432         81432         81432
 MEMORY| Cached                1820268       1820264       1820268       1820264
 MEMORY| Slab                  2289224       2289224       2289224       2289224
 MEMORY| SReclaimable           559972        559972        559972        559972
 MEMORY| MemLikelyFree       119027668     119027664     119027668     119027664


 GENERATE|  Preliminary Number of Bonds generated:                             0
 GENERATE|  Achieved consistency in connectivity generation.

 *******************************************************************************
 *******************************************************************************
 **                                                                           **
 **     #####                         ##              ##                      **
 **    ##   ##            ##          ##              ##                      **
 **   ##     ##                       ##            ######                    **
 **   ##     ##  ##   ##  ##   #####  ##  ##   ####   ##    #####    #####    **
 **   ##     ##  ##   ##  ##  ##      ## ##   ##      ##   ##   ##  ##   ##   **
 **   ##  ## ##  ##   ##  ##  ##      ####     ###    ##   ######   ######    **
 **    ##  ###   ##   ##  ##  ##      ## ##      ##   ##   ##       ##        **
 **     #######   #####   ##   #####  ##  ##  ####    ##    #####   ##        **
 **           ##                                                    ##        **
 **                                                                           **
 **                                                ... make the atoms dance   **
 **                                                                           **
 **            Copyright (C) by CP2K developers group (2000 - 2018)           **
 **                                                                           **
 *******************************************************************************


 TOTAL NUMBERS AND MAXIMUM NUMBERS

  Total number of            - Atomic kinds:                                   2
                             - Atoms:                                        582
                             - Shell sets:                                   582
                             - Shells:                                      2904
                             - Primitive Cartesian functions:               3486
                             - Cartesian basis functions:                   8100
                             - Spherical basis functions:                   7524

  Maximum angular momentum of- Orbital basis functions:                        2
                             - Local part of the GTH pseudopotential:          6
                             - Non-local part of the GTH pseudopotential:      2


 SCF PARAMETERS         Density guess:                                   RESTART
                        --------------------------------------------------------
                        max_scf:                                              30
                        max_scf_history:                                       0
                        max_diis:                                              4
                        --------------------------------------------------------
                        eps_scf:                                        1.00E-06
                        eps_scf_history:                                0.00E+00
                        eps_diis:                                       1.00E-01
                        eps_eigval:                                     1.00E-05
                        --------------------------------------------------------
                        level_shift [a.u.]:                                 0.00
                        --------------------------------------------------------
                        Outer loop SCF in use 
                        No variables optimised in outer loop
                        eps_scf                                         1.00E-06
                        max_scf                                               25
                        DIIS optimization
                        DIIS buffer length                                     3
                        step_size                                       5.00E-01

 BFGS| Use rational function optimization for step estimation:                NO
 BFGS| Use model Hessian for initial guess:                                  YES
 BFGS| Restart Hessian:                                                       NO
 BFGS| Trust radius:                                                       0.472

 *******************************************************************************
 ***                     STARTING GEOMETRY OPTIMIZATION                      ***
 ***                                   BFGS                                  ***
 *******************************************************************************

 Number of electrons:                                                       3474
 Number of occupied orbitals:                                               1737
 Number of molecular orbitals:                                              1737

 Number of orbital functions:                                               7524
 Number of independent orbital functions:                                   7524

 Extrapolation method: initial_guess

 *** WARNING in qs_initial_guess.F:263 :: User requested to restart the   ***
 *** wavefunction from the file named: Li_react-RESTART.wfn. This file    ***
 *** does not exist. Please check the existence of the file or change     ***
 *** properly the value of the keyword WFN_RESTART_FILE_NAME. Calculation ***
 *** continues using ATOMIC GUESS.                                        ***



 SCF WAVEFUNCTION OPTIMIZATION

  ----------------------------------- OT ---------------------------------------
  Minimizer      : DIIS                : direct inversion
                                         in the iterative subspace
                                         using   8 DIIS vectors
                                         safer DIIS on
  Preconditioner : FULL_KINETIC        : inversion of T + eS
  Precond_solver : DEFAULT
  stepsize       :    0.15000000                  energy_gap     :    0.00010000
  eps_taylor     :   0.10000E-15                  max_taylor     :             4
  ----------------------------------- OT ---------------------------------------

  Step     Update method      Time    Convergence         Total energy    Change
  ------------------------------------------------------------------------------
     1 OT DIIS     0.15E+00   23.9     0.00640840     -5756.6943859632 -5.76E+03
     2 OT DIIS     0.15E+00   23.8     0.02479302     -5757.3809143694 -6.87E-01
     3 OT DIIS     0.15E+00   23.5     0.00651002     -5810.2189617672 -5.28E+01
     4 OT DIIS     0.15E+00   23.4     0.00690274     -5829.8739225787 -1.97E+01
     5 OT DIIS     0.15E+00   23.5     0.00573337     -5845.5707571706 -1.57E+01
     6 OT DIIS     0.15E+00   23.4     0.00388406     -5858.0279610113 -1.25E+01
     7 OT DIIS     0.15E+00   23.3     0.00260413     -5874.1303903279 -1.61E+01
     8 OT DIIS     0.15E+00   23.7     0.00287023     -5884.4673168984 -1.03E+01
     9 OT DIIS     0.15E+00   24.1     0.00193913     -5892.1207881710 -7.65E+00
    10 OT DIIS     0.15E+00   23.9     0.00171275     -5897.8656160211 -5.74E+00
    11 OT DIIS     0.15E+00   23.7     0.00159608     -5902.0318795412 -4.17E+00
    12 OT DIIS     0.15E+00   23.8     0.00176430     -5905.1209198965 -3.09E+00
    13 OT DIIS     0.15E+00   23.5     0.00127955     -5907.8762212980 -2.76E+00
    14 OT DIIS     0.15E+00   23.4     0.00111557     -5910.8330022080 -2.96E+00
    15 OT DIIS     0.15E+00   23.7     0.00094131     -5913.5674838785 -2.73E+00
    16 OT DIIS     0.15E+00   24.0     0.00084907     -5915.7211410493 -2.15E+00
    17 OT DIIS     0.15E+00   23.6     0.00095430     -5917.2783246311 -1.56E+00
    18 OT DIIS     0.15E+00   24.0     0.00074620     -5918.7020365589 -1.42E+00
    19 OT DIIS     0.15E+00   23.9     0.00073899     -5919.8040193279 -1.10E+00
    20 OT DIIS     0.15E+00   23.4     0.00063953     -5920.7952749646 -9.91E-01
    21 OT DIIS     0.15E+00   24.1     0.00063428     -5921.7265056576 -9.31E-01
    22 OT DIIS     0.15E+00   24.1     0.00060832     -5922.3171150391 -5.91E-01
    23 OT DIIS     0.15E+00   23.8     0.00053241     -5923.0640484293 -7.47E-01
    24 OT DIIS     0.15E+00   24.1     0.00049987     -5923.5918437098 -5.28E-01
    25 OT DIIS     0.15E+00   24.1     0.00039744     -5924.0618428300 -4.70E-01
    26 OT DIIS     0.15E+00   23.8     0.00042557     -5924.4852398160 -4.23E-01
    27 OT DIIS     0.15E+00   23.8     0.00036681     -5924.7221705574 -2.37E-01
    28 OT DIIS     0.15E+00   23.7     0.00035497     -5925.0419604428 -3.20E-01
    29 OT DIIS     0.15E+00   23.5     0.00032018     -5925.2708242131 -2.29E-01
    30 OT DIIS     0.15E+00   23.5     0.00032380     -5925.5703265415 -3.00E-01

  Leaving inner SCF loop after reaching    30 steps.


  Electronic density on regular grids:      -3474.0000000008       -0.0000000008
  Core density on regular grids:             3473.9999999952       -0.0000000048
  Total charge density on r-space grids:       -0.0000000056
  Total charge density g-space grids:          -0.0000000046

  Overlap energy of the core charge distribution:               0.00000032685021
  Self energy of the core charge distribution:             -13965.50565932552126
  Core Hamiltonian energy:                                   3146.97422536358090
  Hartree energy:                                            6202.53796646683986
  Exchange-correlation energy:                              -1307.09852057227977
  Dispersion energy:                                           -2.47833880099790

  Total energy:                                             -5925.57032654152772

  outer SCF iter =    1 RMS gradient =   0.32E-03 energy =      -5925.5703265415

  ----------------------------------- OT ---------------------------------------
  Minimizer      : DIIS                : direct inversion
                                         in the iterative subspace
                                         using   8 DIIS vectors
                                         safer DIIS on
  Preconditioner : FULL_KINETIC        : inversion of T + eS
  Precond_solver : DEFAULT
  stepsize       :    0.15000000                  energy_gap     :    0.00010000
  eps_taylor     :   0.10000E-15                  max_taylor     :             4
  ----------------------------------- OT ---------------------------------------

  Step     Update method      Time    Convergence         Total energy    Change
  ------------------------------------------------------------------------------
     1 OT DIIS     0.15E+00   51.5     0.00041877     -5925.6888912198 -1.19E-01
     2 OT DIIS     0.15E+00   22.5     0.00121479     -5925.7157206562 -2.68E-02
     3 OT DIIS     0.15E+00   22.7     0.00033797     -5925.9506804158 -2.35E-01
     4 OT DIIS     0.15E+00   23.1     0.00048951     -5926.0765565835 -1.26E-01
     5 OT DIIS     0.15E+00   23.1     0.00034269     -5926.2958071630 -2.19E-01
     6 OT DIIS     0.15E+00   22.9     0.00030907     -5926.4212739086 -1.25E-01
     7 OT DIIS     0.15E+00   23.3     0.00025343     -5926.5453090548 -1.24E-01
     8 OT DIIS     0.15E+00   23.0     0.00031921     -5926.7598394052 -2.15E-01
     9 OT DIIS     0.15E+00   22.6     0.00022497     -5926.9045801477 -1.45E-01
    10 OT DIIS     0.15E+00   23.0     0.00022077     -5927.0220890799 -1.18E-01
    11 OT DIIS     0.15E+00   22.6     0.00025238     -5927.1993694427 -1.77E-01
    12 OT DIIS     0.15E+00   22.8     0.00024523     -5927.2370017245 -3.76E-02
    13 OT DIIS     0.15E+00   23.1     0.00021808     -5927.3203995137 -8.34E-02
    14 OT DIIS     0.15E+00   23.3     0.00021723     -5927.4119125103 -9.15E-02
    15 OT DIIS     0.15E+00   22.9     0.00018828     -5927.4625004645 -5.06E-02
    16 OT DIIS     0.15E+00   23.1     0.00015251     -5927.5023600469 -3.99E-02
    17 OT DIIS     0.15E+00   23.7     0.00014398     -5927.5447566372 -4.24E-02
    18 OT DIIS     0.15E+00   23.4     0.00012403     -5927.5734891895 -2.87E-02
    19 OT DIIS     0.15E+00   23.0     0.00010745     -5927.5923586520 -1.89E-02
    20 OT DIIS     0.15E+00   22.8     0.00011728     -5927.6175561536 -2.52E-02
    21 OT DIIS     0.15E+00   22.6     0.00010918     -5927.6263456725 -8.79E-03
    22 OT DIIS     0.15E+00   22.7     0.00009789     -5927.6380292047 -1.17E-02
    23 OT DIIS     0.15E+00   22.3     0.00009050     -5927.6497311078 -1.17E-02
    24 OT DIIS     0.15E+00   22.8     0.00008121     -5927.6590650120 -9.33E-03
    25 OT DIIS     0.15E+00   22.6     0.00007836     -5927.6663176846 -7.25E-03
    26 OT DIIS     0.15E+00   23.1     0.00007132     -5927.6766777632 -1.04E-02
    27 OT DIIS     0.15E+00   23.1     0.00007091     -5927.6846455296 -7.97E-03
    28 OT DIIS     0.15E+00   23.2     0.00006395     -5927.6915233970 -6.88E-03
    29 OT DIIS     0.15E+00   22.8     0.00006547     -5927.7009691458 -9.45E-03
    30 OT DIIS     0.15E+00   23.0     0.00006473     -5927.7061727766 -5.20E-03

  Leaving inner SCF loop after reaching    30 steps.


  Electronic density on regular grids:      -3474.0000000008       -0.0000000008
  Core density on regular grids:             3473.9999999952       -0.0000000048
  Total charge density on r-space grids:       -0.0000000056
  Total charge density g-space grids:          -0.0000000046

  Overlap energy of the core charge distribution:               0.00000032685021
  Self energy of the core charge distribution:             -13965.50565932552126
  Core Hamiltonian energy:                                   3144.42696642815281
  Hartree energy:                                            6203.29779273071199
  Exchange-correlation energy:                              -1307.44693413576192
  Dispersion energy:                                           -2.47833880099790

  Total energy:                                             -5927.70617277656675

  outer SCF iter =    2 RMS gradient =   0.65E-04 energy =      -5927.7061727766

  ----------------------------------- OT ---------------------------------------
  Minimizer      : DIIS                : direct inversion
                                         in the iterative subspace
                                         using   8 DIIS vectors
                                         safer DIIS on
  Preconditioner : FULL_KINETIC        : inversion of T + eS
  Precond_solver : DEFAULT
  stepsize       :    0.15000000                  energy_gap     :    0.00010000
  eps_taylor     :   0.10000E-15                  max_taylor     :             4
  ----------------------------------- OT ---------------------------------------

  Step     Update method      Time    Convergence         Total energy    Change
  ------------------------------------------------------------------------------
     1 OT DIIS     0.15E+00   52.4     0.00007130     -5927.7117799712 -5.61E-03
     2 OT DIIS     0.15E+00   22.2     0.00020718     -5927.7134577063 -1.68E-03
     3 OT DIIS     0.15E+00   22.5     0.00006049     -5927.7199803319 -6.52E-03
     4 OT DIIS     0.15E+00   22.4     0.00007103     -5927.7242675318 -4.29E-03
     5 OT DIIS     0.15E+00   22.4     0.00006842     -5927.7342114969 -9.94E-03
     6 OT DIIS     0.15E+00   22.6     0.00005501     -5927.7405310436 -6.32E-03
     7 OT DIIS     0.15E+00   22.9     0.00005126     -5927.7452270221 -4.70E-03
     8 OT DIIS     0.15E+00   23.1     0.00005592     -5927.7564804431 -1.13E-02
     9 OT DIIS     0.15E+00   23.0     0.00004944     -5927.7650531645 -8.57E-03
    10 OT DIIS     0.15E+00   23.5     0.00005737     -5927.7641811907  8.72E-04
    11 OT DIIS     0.15E+00   22.9     0.00004070     -5927.7722283814 -8.05E-03
    12 OT DIIS     0.15E+00   22.8     0.00004167     -5927.7729613510 -7.33E-04
    13 OT DIIS     0.15E+00   22.9     0.00002999     -5927.7740195555 -1.06E-03
    14 OT DIIS     0.15E+00   23.1     0.00002741     -5927.7751769311 -1.16E-03
    15 OT DIIS     0.15E+00   23.0     0.00002670     -5927.7760797703 -9.03E-04
    16 OT DIIS     0.15E+00   23.1     0.00002191     -5927.7768756934 -7.96E-04
    17 OT DIIS     0.15E+00   23.1     0.00002168     -5927.7780169971 -1.14E-03
    18 OT DIIS     0.15E+00   23.2     0.00001884     -5927.7788219313 -8.05E-04
    19 OT DIIS     0.15E+00   22.7     0.00001808     -5927.7792462953 -4.24E-04
    20 OT DIIS     0.15E+00   22.9     0.00001835     -5927.7800080489 -7.62E-04
    21 OT DIIS     0.15E+00   22.7     0.00001647     -5927.7805093521 -5.01E-04
    22 OT DIIS     0.15E+00   22.9     0.00001721     -5927.7811615159 -6.52E-04
    23 OT DIIS     0.15E+00   23.0     0.00001706     -5927.7818268811 -6.65E-04
    24 OT DIIS     0.15E+00   22.8     0.00001599     -5927.7826160650 -7.89E-04
    25 OT DIIS     0.15E+00   23.3     0.00001469     -5927.7831253589 -5.09E-04
    26 OT DIIS     0.15E+00   23.4     0.00001426     -5927.7840099066 -8.85E-04
    27 OT DIIS     0.15E+00   23.2     0.00001392     -5927.7846848740 -6.75E-04
    28 OT DIIS     0.15E+00   23.6     0.00001368     -5927.7852891461 -6.04E-04
    29 OT DIIS     0.15E+00   23.3     0.00001464     -5927.7862207521 -9.32E-04
    30 OT DIIS     0.15E+00   22.7     0.00001363     -5927.7867396360 -5.19E-04

  Leaving inner SCF loop after reaching    30 steps.


  Electronic density on regular grids:      -3474.0000000008       -0.0000000008
  Core density on regular grids:             3473.9999999952       -0.0000000048
  Total charge density on r-space grids:       -0.0000000056
  Total charge density g-space grids:          -0.0000000046

  Overlap energy of the core charge distribution:               0.00000032685021
  Self energy of the core charge distribution:             -13965.50565932552126
  Core Hamiltonian energy:                                   3144.19067076624424
  Hartree energy:                                            6203.41164767870669
  Exchange-correlation energy:                              -1307.40506028124719
  Dispersion energy:                                           -2.47833880099790

  Total energy:                                             -5927.78673963596520

  outer SCF iter =    3 RMS gradient =   0.14E-04 energy =      -5927.7867396360

  ----------------------------------- OT ---------------------------------------
  Minimizer      : DIIS                : direct inversion
                                         in the iterative subspace
                                         using   8 DIIS vectors
                                         safer DIIS on
  Preconditioner : FULL_KINETIC        : inversion of T + eS
  Precond_solver : DEFAULT
  stepsize       :    0.15000000                  energy_gap     :    0.00010000
  eps_taylor     :   0.10000E-15                  max_taylor     :             4
  ----------------------------------- OT ---------------------------------------

  Step     Update method      Time    Convergence         Total energy    Change
  ------------------------------------------------------------------------------
     1 OT DIIS     0.15E+00   50.2     0.00001368     -5927.7874292502 -6.90E-04
     2 OT DIIS     0.15E+00   22.4     0.00004039     -5927.7874888812 -5.96E-05
     3 OT DIIS     0.15E+00   22.7     0.00001182     -5927.7877378852 -2.49E-04
     4 OT DIIS     0.15E+00   23.1     0.00001162     -5927.7878865853 -1.49E-04
     5 OT DIIS     0.15E+00   23.2     0.00001394     -5927.7884223813 -5.36E-04
     6 OT DIIS     0.15E+00   23.1     0.00001133     -5927.7889106995 -4.88E-04
     7 OT DIIS     0.15E+00   23.5     0.00001021     -5927.7891809332 -2.70E-04
     8 OT DIIS     0.15E+00   23.3     0.00001132     -5927.7898660581 -6.85E-04
     9 OT DIIS     0.15E+00   23.0     0.00000992     -5927.7904536697 -5.88E-04
    10 OT DIIS     0.15E+00   23.1     0.00001113     -5927.7905051250 -5.15E-05
    11 OT DIIS     0.15E+00   23.1     0.00000981     -5927.7912441890 -7.39E-04
    12 OT DIIS     0.15E+00   23.2     0.00000920     -5927.7915308754 -2.87E-04
    13 OT DIIS     0.15E+00   23.0     0.00000827     -5927.7916517227 -1.21E-04
    14 OT DIIS     0.15E+00   23.4     0.00000829     -5927.7919747441 -3.23E-04
    15 OT DIIS     0.15E+00   23.6     0.00000808     -5927.7921233017 -1.49E-04
    16 OT DIIS     0.15E+00   23.3     0.00000757     -5927.7922922293 -1.69E-04
    17 OT DIIS     0.15E+00   22.8     0.00000763     -5927.7926428356 -3.51E-04
    18 OT DIIS     0.15E+00   23.2     0.00000734     -5927.7929634505 -3.21E-04
    19 OT DIIS     0.15E+00   22.7     0.00000727     -5927.7930785404 -1.15E-04
    20 OT DIIS     0.15E+00   23.1     0.00000717     -5927.7934457796 -3.67E-04
    21 OT DIIS     0.15E+00   23.3     0.00000706     -5927.7936507858 -2.05E-04
    22 OT DIIS     0.15E+00   23.0     0.00000723     -5927.7937946512 -1.44E-04
    23 OT DIIS     0.15E+00   23.2     0.00000753     -5927.7941892931 -3.95E-04
    24 OT DIIS     0.15E+00   23.4     0.00000688     -5927.7944601544 -2.71E-04
    25 OT DIIS     0.15E+00   23.0     0.00000668     -5927.7946474046 -1.87E-04
    26 OT DIIS     0.15E+00   23.1     0.00000612     -5927.7949185089 -2.71E-04
    27 OT DIIS     0.15E+00   23.0     0.00000606     -5927.7951665734 -2.48E-04
    28 OT DIIS     0.15E+00   22.4     0.00000635     -5927.7953066735 -1.40E-04
    29 OT DIIS     0.15E+00   23.4     0.00000653     -5927.7956776249 -3.71E-04
    30 OT DIIS     0.15E+00   22.8     0.00000653     -5927.7958879591 -2.10E-04

  Leaving inner SCF loop after reaching    30 steps.


  Electronic density on regular grids:      -3474.0000000009       -0.0000000009
  Core density on regular grids:             3473.9999999952       -0.0000000048
  Total charge density on r-space grids:       -0.0000000057
  Total charge density g-space grids:          -0.0000000046

  Overlap energy of the core charge distribution:               0.00000032685021
  Self energy of the core charge distribution:             -13965.50565932552126
  Core Hamiltonian energy:                                   3144.19652843644963
  Hartree energy:                                            6203.40573242082246
  Exchange-correlation energy:                              -1307.41415101667280
  Dispersion energy:                                           -2.47833880099790

  Total energy:                                             -5927.79588795907057

  outer SCF iter =    4 RMS gradient =   0.65E-05 energy =      -5927.7958879591

  ----------------------------------- OT ---------------------------------------
  Minimizer      : DIIS                : direct inversion
                                         in the iterative subspace
                                         using   8 DIIS vectors
                                         safer DIIS on
  Preconditioner : FULL_KINETIC        : inversion of T + eS
  Precond_solver : DEFAULT
  stepsize       :    0.15000000                  energy_gap     :    0.00010000
  eps_taylor     :   0.10000E-15                  max_taylor     :             4
  ----------------------------------- OT ---------------------------------------

  Step     Update method      Time    Convergence         Total energy    Change
  ------------------------------------------------------------------------------
     1 OT DIIS     0.15E+00   52.7     0.00000612     -5927.7959810406 -9.31E-05
     2 OT DIIS     0.15E+00   22.3     0.00001879     -5927.7959857612 -4.72E-06
     3 OT DIIS     0.15E+00   22.6     0.00000528     -5927.7960399808 -5.42E-05
     4 OT DIIS     0.15E+00   22.8     0.00000543     -5927.7960623448 -2.24E-05
     5 OT DIIS     0.15E+00   23.0     0.00000513     -5927.7961455526 -8.32E-05
     6 OT DIIS     0.15E+00   22.8     0.00000488     -5927.7962375725 -9.20E-05
     7 OT DIIS     0.15E+00   22.9     0.00000526     -5927.7963090771 -7.15E-05
     8 OT DIIS     0.15E+00   23.1     0.00000455     -5927.7964262268 -1.17E-04
     9 OT DIIS     0.15E+00   22.8     0.00000378     -5927.7964985247 -7.23E-05
    10 OT DIIS     0.15E+00   22.7     0.00000469     -5927.7965388504 -4.03E-05
    11 OT DIIS     0.15E+00   22.7     0.00000382     -5927.7966135975 -7.47E-05
    12 OT DIIS     0.15E+00   22.7     0.00000391     -5927.7966179789 -4.38E-06
    13 OT DIIS     0.15E+00   23.0     0.00000358     -5927.7966540379 -3.61E-05
    14 OT DIIS     0.15E+00   22.7     0.00000337     -5927.7967080634 -5.40E-05
    15 OT DIIS     0.15E+00   22.7     0.00000333     -5927.7967378067 -2.97E-05
    16 OT DIIS     0.15E+00   22.8     0.00000333     -5927.7967734536 -3.56E-05
    17 OT DIIS     0.15E+00   23.0     0.00000327     -5927.7968178018 -4.43E-05
    18 OT DIIS     0.15E+00   22.8     0.00000318     -5927.7968598440 -4.20E-05
    19 OT DIIS     0.15E+00   23.3     0.00000340     -5927.7969166846 -5.68E-05
    20 OT DIIS     0.15E+00   22.9     0.00000319     -5927.7969855306 -6.88E-05
    21 OT DIIS     0.15E+00   22.9     0.00000344     -5927.7969990941 -1.36E-05
    22 OT DIIS     0.15E+00   23.2     0.00000323     -5927.7970721678 -7.31E-05
    23 OT DIIS     0.15E+00   23.1     0.00000310     -5927.7971729811 -1.01E-04
    24 OT DIIS     0.15E+00   23.5     0.00000311     -5927.7972389651 -6.60E-05
    25 OT DIIS     0.15E+00   23.3     0.00000308     -5927.7973274533 -8.85E-05
    26 OT DIIS     0.15E+00   23.1     0.00000304     -5927.7974309776 -1.04E-04
    27 OT DIIS     0.15E+00   23.4     0.00000290     -5927.7975168619 -8.59E-05
    28 OT DIIS     0.15E+00   23.7     0.00000324     -5927.7976309614 -1.14E-04
    29 OT DIIS     0.15E+00   23.3     0.00000291     -5927.7977439898 -1.13E-04
    30 OT DIIS     0.15E+00   23.3     0.00000352     -5927.7977734279 -2.94E-05

  Leaving inner SCF loop after reaching    30 steps.


  Electronic density on regular grids:      -3474.0000001233       -0.0000001233
  Core density on regular grids:             3473.9999999952       -0.0000000048
  Total charge density on r-space grids:       -0.0000001281
  Total charge density g-space grids:          -0.0000001271

  Overlap energy of the core charge distribution:               0.00000032685021
  Self energy of the core charge distribution:             -13965.50565932552126
  Core Hamiltonian energy:                                   3144.17674990776777
  Hartree energy:                                            6203.41724115401394
  Exchange-correlation energy:                              -1307.40776668996841
  Dispersion energy:                                           -2.47833880099790

  Total energy:                                             -5927.79777342785565

  outer SCF iter =    5 RMS gradient =   0.35E-05 energy =      -5927.7977734279

  ----------------------------------- OT ---------------------------------------
  Minimizer      : DIIS                : direct inversion
                                         in the iterative subspace
                                         using   8 DIIS vectors
                                         safer DIIS on
  Preconditioner : FULL_KINETIC        : inversion of T + eS
  Precond_solver : DEFAULT
  stepsize       :    0.15000000                  energy_gap     :    0.00010000
  eps_taylor     :   0.10000E-15                  max_taylor     :             4
  ----------------------------------- OT ---------------------------------------

  Step     Update method      Time    Convergence         Total energy    Change
  ------------------------------------------------------------------------------
     1 OT DIIS     0.15E+00   51.6     0.00000295     -5927.7978733243 -9.99E-05
     2 OT DIIS     0.15E+00   22.4     0.00000788     -5927.7978775318 -4.21E-06
     3 OT DIIS     0.15E+00   22.5     0.00000280     -5927.7978877803 -1.02E-05
     4 OT DIIS     0.15E+00   22.7     0.00000253     -5927.7978919998 -4.22E-06
     5 OT DIIS     0.15E+00   22.4     0.00000270     -5927.7979065771 -1.46E-05
     6 OT DIIS     0.15E+00   22.6     0.00000255     -5927.7979317797 -2.52E-05
     7 OT DIIS     0.15E+00   22.2     0.00000243     -5927.7979487788 -1.70E-05
     8 OT DIIS     0.15E+00   23.0     0.00000241     -5927.7979791943 -3.04E-05
     9 OT DIIS     0.15E+00   22.4     0.00000220     -5927.7980133068 -3.41E-05
    10 OT DIIS     0.15E+00   22.9     0.00000235     -5927.7980306351 -1.73E-05
    11 OT DIIS     0.15E+00   22.3     0.00000236     -5927.7980673102 -3.67E-05
    12 OT DIIS     0.15E+00   22.7     0.00000231     -5927.7980756423 -8.33E-06
    13 OT DIIS     0.15E+00   22.6     0.00000223     -5927.7980863116 -1.07E-05
    14 OT DIIS     0.15E+00   22.3     0.00000217     -5927.7981209568 -3.46E-05
    15 OT DIIS     0.15E+00   22.7     0.00000214     -5927.7981432960 -2.23E-05
    16 OT DIIS     0.15E+00   22.4     0.00000208     -5927.7981601196 -1.68E-05
    17 OT DIIS     0.15E+00   22.3     0.00000207     -5927.7981912316 -3.11E-05
    18 OT DIIS     0.15E+00   22.4     0.00000199     -5927.7982215379 -3.03E-05
    19 OT DIIS     0.15E+00   22.1     0.00000208     -5927.7982474888 -2.60E-05
    20 OT DIIS     0.15E+00   22.2     0.00000204     -5927.7982919215 -4.44E-05
    21 OT DIIS     0.15E+00   22.1     0.00000214     -5927.7983029757 -1.11E-05
    22 OT DIIS     0.15E+00   22.1     0.00000208     -5927.7983217759 -1.88E-05
    23 OT DIIS     0.15E+00   22.2     0.00000203     -5927.7983766813 -5.49E-05
    24 OT DIIS     0.15E+00   21.5     0.00000201     -5927.7984113268 -3.46E-05
    25 OT DIIS     0.15E+00   22.3     0.00000190     -5927.7984384661 -2.71E-05
    26 OT DIIS     0.15E+00   22.3     0.00000191     -5927.7984797672 -4.13E-05
    27 OT DIIS     0.15E+00   22.1     0.00000181     -5927.7985201708 -4.04E-05
    28 OT DIIS     0.15E+00   22.4     0.00000194     -5927.7985535165 -3.33E-05
    29 OT DIIS     0.15E+00   22.9     0.00000188     -5927.7986316859 -7.82E-05
    30 OT DIIS     0.15E+00   23.0     0.00000218     -5927.7986456076 -1.39E-05

  Leaving inner SCF loop after reaching    30 steps.


  Electronic density on regular grids:      -3474.0000000237       -0.0000000237
  Core density on regular grids:             3473.9999999952       -0.0000000048
  Total charge density on r-space grids:       -0.0000000285
  Total charge density g-space grids:          -0.0000000275

  Overlap energy of the core charge distribution:               0.00000032685021
  Self energy of the core charge distribution:             -13965.50565932552126
  Core Hamiltonian energy:                                   3144.18312130987579
  Hartree energy:                                            6203.41344784200101
  Exchange-correlation energy:                              -1307.41121695977722
  Dispersion energy:                                           -2.47833880099790

  Total energy:                                             -5927.79864560757051

  outer SCF iter =    6 RMS gradient =   0.22E-05 energy =      -5927.7986456076

  ----------------------------------- OT ---------------------------------------
  Minimizer      : DIIS                : direct inversion
                                         in the iterative subspace
                                         using   8 DIIS vectors
                                         safer DIIS on
  Preconditioner : FULL_KINETIC        : inversion of T + eS
  Precond_solver : DEFAULT
  stepsize       :    0.15000000                  energy_gap     :    0.00010000
  eps_taylor     :   0.10000E-15                  max_taylor     :             4
  ----------------------------------- OT ---------------------------------------

  Step     Update method      Time    Convergence         Total energy    Change
  ------------------------------------------------------------------------------
     1 OT DIIS     0.15E+00   51.2     0.00000190     -5927.7986642017 -1.86E-05
     2 OT DIIS     0.15E+00   22.3     0.00000616     -5927.7986636330  5.69E-07
     3 OT DIIS     0.15E+00   23.0     0.00000167     -5927.7986694849 -5.85E-06
     4 OT DIIS     0.15E+00   23.0     0.00000155     -5927.7986710843 -1.60E-06
     5 OT DIIS     0.15E+00   23.5     0.00000170     -5927.7986768583 -5.77E-06
     6 OT DIIS     0.15E+00   22.6     0.00000149     -5927.7986848490 -7.99E-06
     7 OT DIIS     0.15E+00   22.8     0.00000151     -5927.7986914495 -6.60E-06
     8 OT DIIS     0.15E+00   22.6     0.00000133     -5927.7987054015 -1.40E-05
     9 OT DIIS     0.15E+00   23.2     0.00000118     -5927.7987153600 -9.96E-06
    10 OT DIIS     0.15E+00   23.0     0.00000149     -5927.7987212637 -5.90E-06
    11 OT DIIS     0.15E+00   23.4     0.00000124     -5927.7987304382 -9.17E-06
    12 OT DIIS     0.15E+00   23.3     0.00000131     -5927.7987307056 -2.67E-07
    13 OT DIIS     0.15E+00   23.9     0.00000119     -5927.7987357004 -4.99E-06
    14 OT DIIS     0.15E+00   23.1     0.00000116     -5927.7987441726 -8.47E-06
    15 OT DIIS     0.15E+00   22.4     0.00000110     -5927.7987480880 -3.92E-06
    16 OT DIIS     0.15E+00   22.6     0.00000107     -5927.7987526690 -4.58E-06
    17 OT DIIS     0.15E+00   22.8     0.00000102     -5927.7987598510 -7.18E-06
    18 OT DIIS     0.15E+00   22.6     0.00000099     -5927.7987657980 -5.95E-06

  *** SCF run converged in    18 steps ***


  Electronic density on regular grids:      -3474.0000000008       -0.0000000008
  Core density on regular grids:             3473.9999999952       -0.0000000048
  Total charge density on r-space grids:       -0.0000000056
  Total charge density g-space grids:          -0.0000000046

  Overlap energy of the core charge distribution:               0.00000032685021
  Self energy of the core charge distribution:             -13965.50565932552126
  Core Hamiltonian energy:                                   3144.18056860590377
  Hartree energy:                                            6203.41488143787137
  Exchange-correlation energy:                              -1307.41021804213233
  Dispersion energy:                                           -2.47833880099790

  Total energy:                                             -5927.79876579802658

  outer SCF iter =    7 RMS gradient =   0.99E-06 energy =      -5927.7987657980
  outer SCF loop converged in   7 iterations or  198 steps


 ENERGY| Total FORCE_EVAL ( QS ) energy (a.u.):            -5927.798773143247672


 --------  Informations at step =     0 ------------
  Optimization Method        =                 BFGS
  Total Energy               =     -5927.7987731432
  Used time                  =             4635.872
 ---------------------------------------------------

 --------------------------
 OPTIMIZATION STEP:      1
 --------------------------

 Number of electrons:                                                       3474
 Number of occupied orbitals:                                               1737
 Number of molecular orbitals:                                              1737

 Number of orbital functions:                                               7524
 Number of independent orbital functions:                                   7524

 Extrapolation method: ASPC


 SCF WAVEFUNCTION OPTIMIZATION

  ----------------------------------- OT ---------------------------------------
  Minimizer      : DIIS                : direct inversion
                                         in the iterative subspace
                                         using   8 DIIS vectors
                                         safer DIIS on
  Preconditioner : FULL_KINETIC        : inversion of T + eS
  Precond_solver : DEFAULT
  stepsize       :    0.15000000                  energy_gap     :    0.00010000
  eps_taylor     :   0.10000E-15                  max_taylor     :             4
  ----------------------------------- OT ---------------------------------------

  Step     Update method      Time    Convergence         Total energy    Change
  ------------------------------------------------------------------------------
     1 OT DIIS     0.15E+00   22.4     0.00002658     -5927.8008353929 -5.93E+03
     2 OT DIIS     0.15E+00   22.4     0.00001867     -5927.8019600610 -1.12E-03
     3 OT DIIS     0.15E+00   22.2     0.00003411     -5927.8026098729 -6.50E-04
     4 OT DIIS     0.15E+00   22.5     0.00001953     -5927.8029265295 -3.17E-04
     5 OT DIIS     0.15E+00   22.4     0.00001281     -5927.8032100351 -2.84E-04
     6 OT DIIS     0.15E+00   22.2     0.00001549     -5927.8034229716 -2.13E-04
     7 OT DIIS     0.15E+00   22.6     0.00001003     -5927.8035443141 -1.21E-04
     8 OT DIIS     0.15E+00   22.4     0.00000968     -5927.8036228111 -7.85E-05
     9 OT DIIS     0.15E+00   22.3     0.00000535     -5927.8036927659 -7.00E-05
    10 OT DIIS     0.15E+00   22.1     0.00000513     -5927.8037364414 -4.37E-05
    11 OT DIIS     0.15E+00   22.1     0.00000537     -5927.8037518847 -1.54E-05
    12 OT DIIS     0.15E+00   22.5     0.00000437     -5927.8037751489 -2.33E-05
    13 OT DIIS     0.15E+00   22.9     0.00000398     -5927.8037900857 -1.49E-05
    14 OT DIIS     0.15E+00   23.3     0.00000336     -5927.8038004913 -1.04E-05
    15 OT DIIS     0.15E+00   22.0     0.00000254     -5927.8038140076 -1.35E-05
    16 OT DIIS     0.15E+00   22.2     0.00000241     -5927.8038221087 -8.10E-06
    17 OT DIIS     0.15E+00   23.1     0.00000232     -5927.8038288283 -6.72E-06
    18 OT DIIS     0.15E+00   22.6     0.00000186     -5927.8038352657 -6.44E-06
    19 OT DIIS     0.15E+00   22.5     0.00000163     -5927.8038419700 -6.70E-06
    20 OT DIIS     0.15E+00   22.8     0.00000208     -5927.8038455016 -3.53E-06
    21 OT DIIS     0.15E+00   22.5     0.00000158     -5927.8038496634 -4.16E-06
    22 OT DIIS     0.15E+00   22.2     0.00000155     -5927.8038523309 -2.67E-06
    23 OT DIIS     0.15E+00   23.4     0.00000143     -5927.8038546785 -2.35E-06
    24 OT DIIS     0.15E+00   22.9     0.00000119     -5927.8038577298 -3.05E-06
    25 OT DIIS     0.15E+00   23.1     0.00000118     -5927.8038602883 -2.56E-06
    26 OT DIIS     0.15E+00   22.7     0.00000116     -5927.8038626543 -2.37E-06
    27 OT DIIS     0.15E+00   22.8     0.00000102     -5927.8038652154 -2.56E-06
    28 OT DIIS     0.15E+00   23.4     0.00000095     -5927.8038679400 -2.72E-06

  *** SCF run converged in    28 steps ***


  Electronic density on regular grids:      -3474.0000000014       -0.0000000014
  Core density on regular grids:             3473.9999999952       -0.0000000048
  Total charge density on r-space grids:       -0.0000000062
  Total charge density g-space grids:          -0.0000000052

  Overlap energy of the core charge distribution:               0.00000032632938
  Self energy of the core charge distribution:             -13965.50565932552126
  Core Hamiltonian energy:                                   3144.11001414026759
  Hartree energy:                                            6203.45905567222690
  Exchange-correlation energy:                              -1307.38893916041116
  Dispersion energy:                                           -2.47833959290766

  Total energy:                                             -5927.80386794001788

  outer SCF iter =    1 RMS gradient =   0.95E-06 energy =      -5927.8038679400
  outer SCF loop converged in   1 iterations or   28 steps


 ENERGY| Total FORCE_EVAL ( QS ) energy (a.u.):            -5927.803870294503213


 --------  Informations at step =     1 ------------
  Optimization Method        =                 BFGS
  Total Energy               =     -5927.8038702945
  Real energy change         =        -0.0050971513
  Predicted change in energy =        -0.0036702042
  Scaling factor             =         0.0000000000
  Step size                  =         0.0749211237
  Trust radius               =         0.4724315332
  Decrease in energy         =                  YES
  Used time                  =              668.418

  Convergence check :
  Max. step size             =         0.0749211237
  Conv. limit for step size  =         0.0030000000
  Convergence in step size   =                   NO
  RMS step size              =         0.0055352542
  Conv. limit for RMS step   =         0.0015000000
  Convergence in RMS step    =                   NO
  Max. gradient              =         0.0048868940
  Conv. limit for gradients  =         0.0004500000
  Conv. for gradients        =                   NO
  RMS gradient               =         0.0004437478
  Conv. limit for RMS grad.  =         0.0003000000
  Conv. for gradients        =                   NO
 ---------------------------------------------------

 --------------------------
 OPTIMIZATION STEP:      2
 --------------------------

 Number of electrons:                                                       3474
 Number of occupied orbitals:                                               1737
 Number of molecular orbitals:                                              1737

 Number of orbital functions:                                               7524
 Number of independent orbital functions:                                   7524

 Extrapolation method: ASPC


 SCF WAVEFUNCTION OPTIMIZATION

  ----------------------------------- OT ---------------------------------------
  Minimizer      : DIIS                : direct inversion
                                         in the iterative subspace
                                         using   8 DIIS vectors
                                         safer DIIS on
  Preconditioner : FULL_KINETIC        : inversion of T + eS
  Precond_solver : DEFAULT
  stepsize       :    0.15000000                  energy_gap     :    0.00010000
  eps_taylor     :   0.10000E-15                  max_taylor     :             4
  ----------------------------------- OT ---------------------------------------

  Step     Update method      Time    Convergence         Total energy    Change
  ------------------------------------------------------------------------------
     1 OT DIIS     0.15E+00   22.5     0.00001206     -5927.8052658789 -5.93E+03
     2 OT DIIS     0.15E+00   22.6     0.00001098     -5927.8054832246 -2.17E-04
     3 OT DIIS     0.15E+00   22.6     0.00002419     -5927.8054865668 -3.34E-06
     4 OT DIIS     0.15E+00   22.5     0.00000726     -5927.8056624182 -1.76E-04
     5 OT DIIS     0.15E+00   22.7     0.00000775     -5927.8057139454 -5.15E-05
     6 OT DIIS     0.15E+00   22.6     0.00000678     -5927.8057613355 -4.74E-05
     7 OT DIIS     0.15E+00   22.4     0.00000602     -5927.8057961415 -3.48E-05
     8 OT DIIS     0.15E+00   22.6     0.00000423     -5927.8058203373 -2.42E-05
     9 OT DIIS     0.15E+00   22.8     0.00000339     -5927.8058407035 -2.04E-05
    10 OT DIIS     0.15E+00   22.5     0.00000320     -5927.8058571072 -1.64E-05
    11 OT DIIS     0.15E+00   22.7     0.00000320     -5927.8058610001 -3.89E-06
    12 OT DIIS     0.15E+00   22.7     0.00000229     -5927.8058724534 -1.15E-05
    13 OT DIIS     0.15E+00   22.4     0.00000263     -5927.8058774450 -4.99E-06
    14 OT DIIS     0.15E+00   22.7     0.00000169     -5927.8058839885 -6.54E-06
    15 OT DIIS     0.15E+00   22.6     0.00000176     -5927.8058898777 -5.89E-06
    16 OT DIIS     0.15E+00   22.6     0.00000159     -5927.8058944601 -4.58E-06
    17 OT DIIS     0.15E+00   22.7     0.00000154     -5927.8058984368 -3.98E-06
    18 OT DIIS     0.15E+00   22.9     0.00000133     -5927.8059033759 -4.94E-06
    19 OT DIIS     0.15E+00   22.7     0.00000137     -5927.8059088503 -5.47E-06
    20 OT DIIS     0.15E+00   22.8     0.00000145     -5927.8059108552 -2.00E-06
    21 OT DIIS     0.15E+00   23.1     0.00000124     -5927.8059155905 -4.74E-06
    22 OT DIIS     0.15E+00   23.0     0.00000134     -5927.8059186517 -3.06E-06
    23 OT DIIS     0.15E+00   22.8     0.00000112     -5927.8059216586 -3.01E-06
    24 OT DIIS     0.15E+00   22.6     0.00000113     -5927.8059259689 -4.31E-06
    25 OT DIIS     0.15E+00   22.6     0.00000108     -5927.8059293298 -3.36E-06
    26 OT DIIS     0.15E+00   22.3     0.00000108     -5927.8059332650 -3.94E-06
    27 OT DIIS     0.15E+00   22.2     0.00000099     -5927.8059377276 -4.46E-06

  *** SCF run converged in    27 steps ***


  Electronic density on regular grids:      -3474.0000000015       -0.0000000015
  Core density on regular grids:             3473.9999999952       -0.0000000048
  Total charge density on r-space grids:       -0.0000000063
  Total charge density g-space grids:          -0.0000000053

  Overlap energy of the core charge distribution:               0.00000032606738
  Self energy of the core charge distribution:             -13965.50565932552126
  Core Hamiltonian energy:                                   3144.04507943855469
  Hartree energy:                                            6203.50166781049847
  Exchange-correlation energy:                              -1307.36885517543669
  Dispersion energy:                                           -2.47817080171982

  Total energy:                                             -5927.80593772755856

  outer SCF iter =    1 RMS gradient =   0.99E-06 energy =      -5927.8059377276
  outer SCF loop converged in   1 iterations or   27 steps


 ENERGY| Total FORCE_EVAL ( QS ) energy (a.u.):            -5927.805943704750462


 --------  Informations at step =     2 ------------
  Optimization Method        =                 BFGS
  Total Energy               =     -5927.8059437048
  Real energy change         =        -0.0020734102
  Predicted change in energy =        -0.0016649580
  Scaling factor             =         0.0000000000
  Step size                  =         0.0662053690
  Trust radius               =         0.4724315332
  Decrease in energy         =                  YES
  Used time                  =              648.783

  Convergence check :
  Max. step size             =         0.0662053690
  Conv. limit for step size  =         0.0030000000
  Convergence in step size   =                   NO
  RMS step size              =         0.0053259098
  Conv. limit for RMS step   =         0.0015000000
  Convergence in RMS step    =                   NO
  Max. gradient              =         0.0035296363
  Conv. limit for gradients  =         0.0004500000
  Conv. for gradients        =                   NO
  RMS gradient               =         0.0002649288
  Conv. limit for RMS grad.  =         0.0003000000
  Conv. in RMS gradients     =                  YES
 ---------------------------------------------------

 --------------------------
 OPTIMIZATION STEP:      3
 --------------------------

 Number of electrons:                                                       3474
 Number of occupied orbitals:                                               1737
 Number of molecular orbitals:                                              1737

 Number of orbital functions:                                               7524
 Number of independent orbital functions:                                   7524

 Extrapolation method: ASPC


 SCF WAVEFUNCTION OPTIMIZATION

  ----------------------------------- OT ---------------------------------------
  Minimizer      : DIIS                : direct inversion
                                         in the iterative subspace
                                         using   8 DIIS vectors
                                         safer DIIS on
  Preconditioner : FULL_KINETIC        : inversion of T + eS
  Precond_solver : DEFAULT
  stepsize       :    0.15000000                  energy_gap     :    0.00010000
  eps_taylor     :   0.10000E-15                  max_taylor     :             4
  ----------------------------------- OT ---------------------------------------

  Step     Update method      Time    Convergence         Total energy    Change
  ------------------------------------------------------------------------------
     1 OT DIIS     0.15E+00   21.8     0.00001389     -5927.8061217949 -5.93E+03
     2 OT DIIS     0.15E+00   21.4     0.00001322     -5927.8064073122 -2.86E-04
     3 OT DIIS     0.15E+00   22.3     0.00002717     -5927.8064079057 -5.94E-07
     4 OT DIIS     0.15E+00   22.4     0.00000857     -5927.8066432743 -2.35E-04
     5 OT DIIS     0.15E+00   21.8     0.00001015     -5927.8066901070 -4.68E-05
     6 OT DIIS     0.15E+00   22.3     0.00000760     -5927.8067412649 -5.12E-05
     7 OT DIIS     0.15E+00   22.8     0.00000653     -5927.8067831163 -4.19E-05
     8 OT DIIS     0.15E+00   22.6     0.00000364     -5927.8068068349 -2.37E-05
     9 OT DIIS     0.15E+00   22.7     0.00000418     -5927.8068264447 -1.96E-05
    10 OT DIIS     0.15E+00   22.9     0.00000329     -5927.8068339607 -7.52E-06
    11 OT DIIS     0.15E+00   22.9     0.00000226     -5927.8068414295 -7.47E-06
    12 OT DIIS     0.15E+00   22.9     0.00000243     -5927.8068473391 -5.91E-06
    13 OT DIIS     0.15E+00   22.6     0.00000222     -5927.8068519787 -4.64E-06
    14 OT DIIS     0.15E+00   22.4     0.00000166     -5927.8068555325 -3.55E-06
    15 OT DIIS     0.15E+00   22.3     0.00000166     -5927.8068595261 -3.99E-06
    16 OT DIIS     0.15E+00   22.5     0.00000140     -5927.8068624540 -2.93E-06
    17 OT DIIS     0.15E+00   22.7     0.00000115     -5927.8068649944 -2.54E-06
    18 OT DIIS     0.15E+00   22.3     0.00000114     -5927.8068679431 -2.95E-06
    19 OT DIIS     0.15E+00   22.3     0.00000122     -5927.8068698856 -1.94E-06
    20 OT DIIS     0.15E+00   22.4     0.00000102     -5927.8068712054 -1.32E-06
    21 OT DIIS     0.15E+00   22.8     0.00000094     -5927.8068731367 -1.93E-06

  *** SCF run converged in    21 steps ***


  Electronic density on regular grids:      -3474.0000000012       -0.0000000012
  Core density on regular grids:             3473.9999999952       -0.0000000048
  Total charge density on r-space grids:       -0.0000000060
  Total charge density g-space grids:          -0.0000000050

  Overlap energy of the core charge distribution:               0.00000032596152
  Self energy of the core charge distribution:             -13965.50565932552126
  Core Hamiltonian energy:                                   3144.00648044806076
  Hartree energy:                                            6203.52732927229772
  Exchange-correlation energy:                              -1307.35677856015695
  Dispersion energy:                                           -2.47824529732502

  Total energy:                                             -5927.80687313668386

  outer SCF iter =    1 RMS gradient =   0.94E-06 energy =      -5927.8068731367
  outer SCF loop converged in   1 iterations or   21 steps


 ENERGY| Total FORCE_EVAL ( QS ) energy (a.u.):            -5927.806874220517784


 --------  Informations at step =     3 ------------
  Optimization Method        =                 BFGS
  Total Energy               =     -5927.8068742205
  Real energy change         =        -0.0009305158
  Predicted change in energy =        -0.0005107203
  Scaling factor             =         0.0000000000
  Step size                  =         0.0455089131
  Trust radius               =         0.4724315332
  Decrease in energy         =                  YES
  Used time                  =              510.786

  Convergence check :
  Max. step size             =         0.0455089131
  Conv. limit for step size  =         0.0030000000
  Convergence in step size   =                   NO
  RMS step size              =         0.0032780983
  Conv. limit for RMS step   =         0.0015000000
  Convergence in RMS step    =                   NO
  Max. gradient              =         0.0024199087
  Conv. limit for gradients  =         0.0004500000
  Conv. for gradients        =                   NO
  RMS gradient               =         0.0002188833
  Conv. limit for RMS grad.  =         0.0003000000
  Conv. in RMS gradients     =                  YES
 ---------------------------------------------------

 --------------------------
 OPTIMIZATION STEP:      4
 --------------------------

 Number of electrons:                                                       3474
 Number of occupied orbitals:                                               1737
 Number of molecular orbitals:                                              1737

 Number of orbital functions:                                               7524
 Number of independent orbital functions:                                   7524

 Extrapolation method: ASPC


 SCF WAVEFUNCTION OPTIMIZATION

  ----------------------------------- OT ---------------------------------------
  Minimizer      : DIIS                : direct inversion
                                         in the iterative subspace
                                         using   8 DIIS vectors
                                         safer DIIS on
  Preconditioner : FULL_KINETIC        : inversion of T + eS
  Precond_solver : DEFAULT
  stepsize       :    0.15000000                  energy_gap     :    0.00010000
  eps_taylor     :   0.10000E-15                  max_taylor     :             4
  ----------------------------------- OT ---------------------------------------

  Step     Update method      Time    Convergence         Total energy    Change
  ------------------------------------------------------------------------------
     1 OT DIIS     0.15E+00   22.5     0.00002524     -5927.8057073160 -5.93E+03
     2 OT DIIS     0.15E+00   22.1     0.00002546     -5927.8066794809 -9.72E-04
     3 OT DIIS     0.15E+00   22.4     0.00004548     -5927.8067508198 -7.13E-05
     4 OT DIIS     0.15E+00   22.4     0.00001530     -5927.8076714393 -9.21E-04
     5 OT DIIS     0.15E+00   22.3     0.00002037     -5927.8078548580 -1.83E-04
     6 OT DIIS     0.15E+00   22.7     0.00001383     -5927.8080451839 -1.90E-04
     7 OT DIIS     0.15E+00   22.6     0.00000902     -5927.8082395777 -1.94E-04
     8 OT DIIS     0.15E+00   22.5     0.00000924     -5927.8083031284 -6.36E-05
     9 OT DIIS     0.15E+00   22.6     0.00000737     -5927.8083638946 -6.08E-05
    10 OT DIIS     0.15E+00   22.5     0.00000640     -5927.8083931885 -2.93E-05
    11 OT DIIS     0.15E+00   22.3     0.00000394     -5927.8084162954 -2.31E-05
    12 OT DIIS     0.15E+00   22.3     0.00000486     -5927.8084358492 -1.96E-05
    13 OT DIIS     0.15E+00   21.8     0.00000394     -5927.8084487035 -1.29E-05
    14 OT DIIS     0.15E+00   22.6     0.00000290     -5927.8084614049 -1.27E-05
    15 OT DIIS     0.15E+00   22.8     0.00000318     -5927.8084708392 -9.43E-06
    16 OT DIIS     0.15E+00   22.8     0.00000215     -5927.8084803270 -9.49E-06
    17 OT DIIS     0.15E+00   22.7     0.00000211     -5927.8084868438 -6.52E-06
    18 OT DIIS     0.15E+00   22.5     0.00000190     -5927.8084933901 -6.55E-06
    19 OT DIIS     0.15E+00   22.6     0.00000223     -5927.8084979632 -4.57E-06
    20 OT DIIS     0.15E+00   22.5     0.00000148     -5927.8085010863 -3.12E-06
    21 OT DIIS     0.15E+00   22.3     0.00000171     -5927.8085050667 -3.98E-06
    22 OT DIIS     0.15E+00   22.1     0.00000150     -5927.8085066660 -1.60E-06
    23 OT DIIS     0.15E+00   21.4     0.00000119     -5927.8085086744 -2.01E-06
    24 OT DIIS     0.15E+00   21.1     0.00000121     -5927.8085104984 -1.82E-06
    25 OT DIIS     0.15E+00   21.9     0.00000099     -5927.8085120836 -1.59E-06

  *** SCF run converged in    25 steps ***


  Electronic density on regular grids:      -3474.0000000007       -0.0000000007
  Core density on regular grids:             3473.9999999952       -0.0000000048
  Total charge density on r-space grids:       -0.0000000056
  Total charge density g-space grids:          -0.0000000046

  Overlap energy of the core charge distribution:               0.00000032602557
  Self energy of the core charge distribution:             -13965.50565932552126
  Core Hamiltonian energy:                                   3143.93834906408711
  Hartree energy:                                            6203.57263200897705
  Exchange-correlation energy:                              -1307.33548881527531
  Dispersion energy:                                           -2.47834534192133

  Total energy:                                             -5927.80851208362856

  outer SCF iter =    1 RMS gradient =   0.99E-06 energy =      -5927.8085120836
  outer SCF loop converged in   1 iterations or   25 steps


 ENERGY| Total FORCE_EVAL ( QS ) energy (a.u.):            -5927.808513680433862


 --------  Informations at step =     4 ------------
  Optimization Method        =                 BFGS
  Total Energy               =     -5927.8085136804
  Real energy change         =        -0.0016394599
  Predicted change in energy =        -0.0010689377
  Scaling factor             =         0.0000000000
  Step size                  =         0.1216871804
  Trust radius               =         0.4724315332
  Decrease in energy         =                  YES
  Used time                  =              598.282

  Convergence check :
  Max. step size             =         0.1216871804
  Conv. limit for step size  =         0.0030000000
  Convergence in step size   =                   NO
  RMS step size              =         0.0088104715
  Conv. limit for RMS step   =         0.0015000000
  Convergence in RMS step    =                   NO
  Max. gradient              =         0.0091637108
  Conv. limit for gradients  =         0.0004500000
  Conv. for gradients        =                   NO
  RMS gradient               =         0.0003857552
  Conv. limit for RMS grad.  =         0.0003000000
  Conv. for gradients        =                   NO
 ---------------------------------------------------

 --------------------------
 OPTIMIZATION STEP:      5
 --------------------------

  Step is scaled; Scaling factor =  0.81423

 Number of electrons:                                                       3474
 Number of occupied orbitals:                                               1737
 Number of molecular orbitals:                                              1737

 Number of orbital functions:                                               7524
 Number of independent orbital functions:                                   7524

 Extrapolation method: ASPC


 SCF WAVEFUNCTION OPTIMIZATION

  ----------------------------------- OT ---------------------------------------
  Minimizer      : DIIS                : direct inversion
                                         in the iterative subspace
                                         using   8 DIIS vectors
                                         safer DIIS on
  Preconditioner : FULL_KINETIC        : inversion of T + eS
  Precond_solver : DEFAULT
  stepsize       :    0.15000000                  energy_gap     :    0.00010000
  eps_taylor     :   0.10000E-15                  max_taylor     :             4
  ----------------------------------- OT ---------------------------------------

  Step     Update method      Time    Convergence         Total energy    Change
  ------------------------------------------------------------------------------
     1 OT DIIS     0.15E+00   22.7     0.00007153     -5927.7783985871 -5.93E+03
     2 OT DIIS     0.15E+00   21.7     0.00005350     -5927.7865363304 -8.14E-03
     3 OT DIIS     0.15E+00   22.6     0.00013886     -5927.7889043420 -2.37E-03
     4 OT DIIS     0.15E+00   22.2     0.00004891     -5927.7936595420 -4.76E-03
     5 OT DIIS     0.15E+00   22.0     0.00004966     -5927.7954043946 -1.74E-03
     6 OT DIIS     0.15E+00   22.2     0.00004042     -5927.7968131896 -1.41E-03
     7 OT DIIS     0.15E+00   21.2     0.00003322     -5927.7980052196 -1.19E-03
     8 OT DIIS     0.15E+00   22.2     0.00002285     -5927.7985911505 -5.86E-04
     9 OT DIIS     0.15E+00   22.1     0.00001763     -5927.7992049532 -6.14E-04
    10 OT DIIS     0.15E+00   22.7     0.00002188     -5927.7994019827 -1.97E-04
    11 OT DIIS     0.15E+00   22.9     0.00001149     -5927.7996130299 -2.11E-04
    12 OT DIIS     0.15E+00   23.0     0.00001299     -5927.7997988833 -1.86E-04
    13 OT DIIS     0.15E+00   22.8     0.00001104     -5927.7999171134 -1.18E-04
    14 OT DIIS     0.15E+00   22.9     0.00001010     -5927.8000160665 -9.90E-05
    15 OT DIIS     0.15E+00   22.7     0.00000802     -5927.8001274622 -1.11E-04
    16 OT DIIS     0.15E+00   22.5     0.00000780     -5927.8002109022 -8.34E-05
    17 OT DIIS     0.15E+00   22.2     0.00000636     -5927.8002746802 -6.38E-05
    18 OT DIIS     0.15E+00   22.4     0.00000539     -5927.8003496227 -7.49E-05
    19 OT DIIS     0.15E+00   22.3     0.00000686     -5927.8004008135 -5.12E-05
    20 OT DIIS     0.15E+00   22.3     0.00000509     -5927.8004274277 -2.66E-05
    21 OT DIIS     0.15E+00   22.3     0.00000500     -5927.8004694735 -4.20E-05
    22 OT DIIS     0.15E+00   22.0     0.00000449     -5927.8004902757 -2.08E-05
    23 OT DIIS     0.15E+00   21.9     0.00000429     -5927.8005092116 -1.89E-05
    24 OT DIIS     0.15E+00   22.2     0.00000335     -5927.8005277293 -1.85E-05
    25 OT DIIS     0.15E+00   22.1     0.00000338     -5927.8005433755 -1.56E-05
    26 OT DIIS     0.15E+00   22.2     0.00000284     -5927.8005553025 -1.19E-05
    27 OT DIIS     0.15E+00   22.4     0.00000247     -5927.8005704253 -1.51E-05
    28 OT DIIS     0.15E+00   21.8     0.00000291     -5927.8005820318 -1.16E-05
    29 OT DIIS     0.15E+00   22.3     0.00000249     -5927.8005874662 -5.43E-06
    30 OT DIIS     0.15E+00   22.4     0.00000230     -5927.8005978939 -1.04E-05

  Leaving inner SCF loop after reaching    30 steps.


  Electronic density on regular grids:      -3474.0000000092       -0.0000000092
  Core density on regular grids:             3473.9999999952       -0.0000000048
  Total charge density on r-space grids:       -0.0000000140
  Total charge density g-space grids:          -0.0000000130

  Overlap energy of the core charge distribution:               0.00000032818990
  Self energy of the core charge distribution:             -13965.50565932552126
  Core Hamiltonian energy:                                   3143.68621050360616
  Hartree energy:                                            6203.74854012134165
  Exchange-correlation energy:                              -1307.25158671059717
  Dispersion energy:                                           -2.47810281090865

  Total energy:                                             -5927.80059789389088

  outer SCF iter =    1 RMS gradient =   0.23E-05 energy =      -5927.8005978939

  ----------------------------------- OT ---------------------------------------
  Minimizer      : DIIS                : direct inversion
                                         in the iterative subspace
                                         using   8 DIIS vectors
                                         safer DIIS on
  Preconditioner : FULL_KINETIC        : inversion of T + eS
  Precond_solver : DEFAULT
  stepsize       :    0.15000000                  energy_gap     :    0.00010000
  eps_taylor     :   0.10000E-15                  max_taylor     :             4
  ----------------------------------- OT ---------------------------------------

  Step     Update method      Time    Convergence         Total energy    Change
  ------------------------------------------------------------------------------
     1 OT DIIS     0.15E+00   49.8     0.00000228     -5927.8006037262 -5.83E-06
     2 OT DIIS     0.15E+00   22.7     0.00000892     -5927.8005978781  5.85E-06
     3 OT DIIS     0.15E+00   22.4     0.00000172     -5927.8006097344 -1.19E-05
     4 OT DIIS     0.15E+00   22.2     0.00000175     -5927.8006116262 -1.89E-06
     5 OT DIIS     0.15E+00   22.2     0.00000206     -5927.8006166781 -5.05E-06
     6 OT DIIS     0.15E+00   22.2     0.00000188     -5927.8006341958 -1.75E-05
     7 OT DIIS     0.15E+00   22.1     0.00000119     -5927.8006389200 -4.72E-06
     8 OT DIIS     0.15E+00   22.0     0.00000089     -5927.8006400865 -1.17E-06

  *** SCF run converged in     8 steps ***


  Electronic density on regular grids:      -3473.9999999997        0.0000000003
  Core density on regular grids:             3473.9999999952       -0.0000000048
  Total charge density on r-space grids:       -0.0000000045
  Total charge density g-space grids:          -0.0000000035

  Overlap energy of the core charge distribution:               0.00000032818990
  Self energy of the core charge distribution:             -13965.50565932552126
  Core Hamiltonian energy:                                   3143.68485916617192
  Hartree energy:                                            6203.74934365283116
  Exchange-correlation energy:                              -1307.25108109727648
  Dispersion energy:                                           -2.47810281090865

  Total energy:                                             -5927.80064008651243

  outer SCF iter =    2 RMS gradient =   0.89E-06 energy =      -5927.8006400865
  outer SCF loop converged in   2 iterations or   38 steps


 ENERGY| Total FORCE_EVAL ( QS ) energy (a.u.):            -5927.800641668924072


 --------  Informations at step =     5 ------------
  Optimization Method        =                 BFGS
  Total Energy               =     -5927.8006416689
  Real energy change         =         0.0078720115
  Predicted change in energy =        -0.0045790900
  Scaling factor             =         0.8142260824
  Step size                  =         0.4724315332
  Trust radius               =         0.4724315332
  Decrease in energy         =                   NO
  Used time                  =              892.391

  Convergence check :
  Max. step size             =         0.4724315332
  Conv. limit for step size  =         0.0030000000
  Convergence in step size   =                   NO
  RMS step size              =         0.0355833805
  Conv. limit for RMS step   =         0.0015000000
  Convergence in RMS step    =                   NO
  Max. gradient              =         0.0153657235
  Conv. limit for gradients  =         0.0004500000
  Conv. for gradients        =                   NO
  RMS gradient               =         0.0010724007
  Conv. limit for RMS grad.  =         0.0003000000
  Conv. for gradients        =                   NO
 ---------------------------------------------------

 --------------------------
 OPTIMIZATION STEP:      6
 --------------------------

 Number of electrons:                                                       3474
 Number of occupied orbitals:                                               1737
 Number of molecular orbitals:                                              1737

 Number of orbital functions:                                               7524
 Number of independent orbital functions:                                   7524

 Extrapolation method: ASPC


 SCF WAVEFUNCTION OPTIMIZATION

  ----------------------------------- OT ---------------------------------------
  Minimizer      : DIIS                : direct inversion
                                         in the iterative subspace
                                         using   8 DIIS vectors
                                         safer DIIS on
  Preconditioner : FULL_KINETIC        : inversion of T + eS
  Precond_solver : DEFAULT
  stepsize       :    0.15000000                  energy_gap     :    0.00010000
  eps_taylor     :   0.10000E-15                  max_taylor     :             4
  ----------------------------------- OT ---------------------------------------

  Step     Update method      Time    Convergence         Total energy    Change
  ------------------------------------------------------------------------------
     1 OT DIIS     0.15E+00   22.5     0.00028680     -5927.4485054886 -5.93E+03
     2 OT DIIS     0.15E+00   22.1     0.00020525     -5927.5810303346 -1.33E-01
     3 OT DIIS     0.15E+00   21.9     0.00031862     -5927.6695200720 -8.85E-02
     4 OT DIIS     0.15E+00   22.3     0.00026136     -5927.7018212192 -3.23E-02
     5 OT DIIS     0.15E+00   22.6     0.00016764     -5927.7353736364 -3.36E-02
     6 OT DIIS     0.15E+00   22.8     0.00019225     -5927.7558707630 -2.05E-02
     7 OT DIIS     0.15E+00   21.9     0.00009801     -5927.7753561894 -1.95E-02
     8 OT DIIS     0.15E+00   21.8     0.00012200     -5927.7834696428 -8.11E-03
     9 OT DIIS     0.15E+00   23.5     0.00006911     -5927.7916178463 -8.15E-03
    10 OT DIIS     0.15E+00   22.7     0.00007828     -5927.7955888958 -3.97E-03
    11 OT DIIS     0.15E+00   22.8     0.00004602     -5927.7979794607 -2.39E-03
    12 OT DIIS     0.15E+00   22.8     0.00004962     -5927.8007188858 -2.74E-03
    13 OT DIIS     0.15E+00   22.7     0.00003723     -5927.8022762375 -1.56E-03
    14 OT DIIS     0.15E+00   23.0     0.00004029     -5927.8035353317 -1.26E-03
    15 OT DIIS     0.15E+00   23.2     0.00002940     -5927.8047678931 -1.23E-03
    16 OT DIIS     0.15E+00   23.4     0.00002463     -5927.8057841676 -1.02E-03
    17 OT DIIS     0.15E+00   23.7     0.00002574     -5927.8065165654 -7.32E-04
    18 OT DIIS     0.15E+00   23.4     0.00002075     -5927.8071832828 -6.67E-04
    19 OT DIIS     0.15E+00   22.9     0.00002162     -5927.8077010782 -5.18E-04
    20 OT DIIS     0.15E+00   22.1     0.00001758     -5927.8079763642 -2.75E-04
    21 OT DIIS     0.15E+00   22.7     0.00001679     -5927.8083475632 -3.71E-04
    22 OT DIIS     0.15E+00   23.1     0.00001423     -5927.8085337874 -1.86E-04
    23 OT DIIS     0.15E+00   22.7     0.00001405     -5927.8087145238 -1.81E-04
    24 OT DIIS     0.15E+00   22.4     0.00001172     -5927.8088534051 -1.39E-04
    25 OT DIIS     0.15E+00   22.6     0.00000955     -5927.8089868785 -1.33E-04
    26 OT DIIS     0.15E+00   22.2     0.00000987     -5927.8090896405 -1.03E-04
    27 OT DIIS     0.15E+00   22.3     0.00000815     -5927.8091873710 -9.77E-05
    28 OT DIIS     0.15E+00   22.4     0.00000866     -5927.8092722446 -8.49E-05
    29 OT DIIS     0.15E+00   23.2     0.00000750     -5927.8093228357 -5.06E-05
    30 OT DIIS     0.15E+00   23.3     0.00000711     -5927.8093977882 -7.50E-05

  Leaving inner SCF loop after reaching    30 steps.


  Electronic density on regular grids:      -3474.0000000005       -0.0000000005
  Core density on regular grids:             3473.9999999952       -0.0000000048
  Total charge density on r-space grids:       -0.0000000054
  Total charge density g-space grids:          -0.0000000045

  Overlap energy of the core charge distribution:               0.00000032652963
  Self energy of the core charge distribution:             -13965.50565932552126
  Core Hamiltonian energy:                                   3143.89287690568381
  Hartree energy:                                            6203.60348896104006
  Exchange-correlation energy:                              -1307.32139544089955
  Dispersion energy:                                           -2.47870921504462

  Total energy:                                             -5927.80939778821084

  outer SCF iter =    1 RMS gradient =   0.71E-05 energy =      -5927.8093977882

  ----------------------------------- OT ---------------------------------------
  Minimizer      : DIIS                : direct inversion
                                         in the iterative subspace
                                         using   8 DIIS vectors
                                         safer DIIS on
  Preconditioner : FULL_KINETIC        : inversion of T + eS
  Precond_solver : DEFAULT
  stepsize       :    0.15000000                  energy_gap     :    0.00010000
  eps_taylor     :   0.10000E-15                  max_taylor     :             4
  ----------------------------------- OT ---------------------------------------

  Step     Update method      Time    Convergence         Total energy    Change
  ------------------------------------------------------------------------------
     1 OT DIIS     0.15E+00   50.8     0.00000652     -5927.8094424915 -4.47E-05
     2 OT DIIS     0.15E+00   22.0     0.00002205     -5927.8094173939  2.51E-05
     3 OT DIIS     0.15E+00   21.9     0.00000545     -5927.8094953488 -7.80E-05
     4 OT DIIS     0.15E+00   21.9     0.00000504     -5927.8095105122 -1.52E-05
     5 OT DIIS     0.15E+00   21.9     0.00000594     -5927.8095635917 -5.31E-05
     6 OT DIIS     0.15E+00   22.1     0.00000716     -5927.8096741638 -1.11E-04
     7 OT DIIS     0.15E+00   22.4     0.00000291     -5927.8097257118 -5.15E-05
     8 OT DIIS     0.15E+00   22.7     0.00000271     -5927.8097385232 -1.28E-05
     9 OT DIIS     0.15E+00   23.1     0.00000340     -5927.8097569868 -1.85E-05
    10 OT DIIS     0.15E+00   22.3     0.00000240     -5927.8097597509 -2.76E-06
    11 OT DIIS     0.15E+00   22.3     0.00000264     -5927.8097790687 -1.93E-05
    12 OT DIIS     0.15E+00   22.5     0.00000263     -5927.8098054728 -2.64E-05
    13 OT DIIS     0.15E+00   22.5     0.00000274     -5927.8098150053 -9.53E-06
    14 OT DIIS     0.15E+00   22.5     0.00000192     -5927.8098256849 -1.07E-05
    15 OT DIIS     0.15E+00   22.6     0.00000191     -5927.8098377267 -1.20E-05
    16 OT DIIS     0.15E+00   22.7     0.00000171     -5927.8098448630 -7.14E-06
    17 OT DIIS     0.15E+00   22.8     0.00000179     -5927.8098564357 -1.16E-05
    18 OT DIIS     0.15E+00   22.8     0.00000219     -5927.8098740905 -1.77E-05
    19 OT DIIS     0.15E+00   22.1     0.00000191     -5927.8098779903 -3.90E-06
    20 OT DIIS     0.15E+00   21.3     0.00000173     -5927.8098901670 -1.22E-05
    21 OT DIIS     0.15E+00   22.0     0.00000145     -5927.8099007202 -1.06E-05
    22 OT DIIS     0.15E+00   22.9     0.00000141     -5927.8099061733 -5.45E-06
    23 OT DIIS     0.15E+00   22.6     0.00000128     -5927.8099105603 -4.39E-06
    24 OT DIIS     0.15E+00   22.7     0.00000135     -5927.8099180547 -7.49E-06
    25 OT DIIS     0.15E+00   22.6     0.00000123     -5927.8099218035 -3.75E-06
    26 OT DIIS     0.15E+00   22.6     0.00000122     -5927.8099268454 -5.04E-06
    27 OT DIIS     0.15E+00   22.8     0.00000125     -5927.8099306010 -3.76E-06
    28 OT DIIS     0.15E+00   22.6     0.00000104     -5927.8099315422 -9.41E-07
    29 OT DIIS     0.15E+00   22.5     0.00000095     -5927.8099333426 -1.80E-06

  *** SCF run converged in    29 steps ***


  Electronic density on regular grids:      -3474.0000000010       -0.0000000010
  Core density on regular grids:             3473.9999999952       -0.0000000048
  Total charge density on r-space grids:       -0.0000000059
  Total charge density g-space grids:          -0.0000000049

  Overlap energy of the core charge distribution:               0.00000032652963
  Self energy of the core charge distribution:             -13965.50565932552126
  Core Hamiltonian energy:                                   3143.89769643006866
  Hartree energy:                                            6203.60041604365051
  Exchange-correlation energy:                              -1307.32367760228317
  Dispersion energy:                                           -2.47870921504462

  Total energy:                                             -5927.80993334259983

  outer SCF iter =    2 RMS gradient =   0.95E-06 energy =      -5927.8099333426
  outer SCF loop converged in   2 iterations or   59 steps


 ENERGY| Total FORCE_EVAL ( QS ) energy (a.u.):            -5927.809935181203400


 --------  Informations at step =     6 ------------
  Optimization Method        =                 BFGS
  Total Energy               =     -5927.8099351812
[...]
 flops    13 x    32 x    32         209512562688       0.0%    100.0%      0.0%
 flops    13 x     6 x   416         412307780352       0.0%    100.0%      0.0%
 flops     6 x    13 x   416         412328806656       0.0%    100.0%      0.0%
 flops    13 x     6 x   425         421227900600       0.0%    100.0%      0.0%
 flops     6 x    13 x   425         421249381800       0.0%    100.0%      0.0%
 flops    13 x     6 x   448         888047526912       0.0%    100.0%      0.0%
 flops     6 x    13 x   448         888092814336       0.0%    100.0%      0.0%
 flops   416 x   416 x   416        4382830100480     100.0%      0.0%      0.0%
 flops   416 x   416 x   425        4477650944000     100.0%      0.0%      0.0%
 flops   416 x   425 x   416        4477650944000     100.0%      0.0%      0.0%
 flops   425 x   416 x   416        4477650944000     100.0%      0.0%      0.0%
 flops   416 x   425 x   425        4574523200000     100.0%      0.0%      0.0%
 flops   425 x   416 x   425        4574523200000     100.0%      0.0%      0.0%
 flops   425 x   425 x   416        4574523200000     100.0%      0.0%      0.0%
 flops   425 x   425 x   425        4673491250000     100.0%      0.0%      0.0%
 flops    13 x     9 x    13        6591148995132       0.0%    100.0%      0.0%
 flops     6 x    32 x    13        7286317099776       0.0%    100.0%      0.0%
 flops    13 x    32 x     6        7286317099776       0.0%    100.0%      0.0%
 flops   416 x   416 x   448        9439941754880     100.0%      0.0%      0.0%
 flops   416 x   448 x   416        9439941754880     100.0%      0.0%      0.0%
 flops   448 x   416 x   416        9439941754880     100.0%      0.0%      0.0%
 flops   416 x   425 x   448        9644171264000     100.0%      0.0%      0.0%
 flops   416 x   448 x   425        9644171264000     100.0%      0.0%      0.0%
 flops   425 x   416 x   448        9644171264000     100.0%      0.0%      0.0%
 flops   425 x   448 x   416        9644171264000     100.0%      0.0%      0.0%
 flops   448 x   416 x   425        9644171264000     100.0%      0.0%      0.0%
 flops   448 x   425 x   416        9644171264000     100.0%      0.0%      0.0%
 flops   425 x   425 x   448        9852819200000     100.0%      0.0%      0.0%
 flops   425 x   448 x   425        9852819200000     100.0%      0.0%      0.0%
 flops   448 x   425 x   425        9852819200000     100.0%      0.0%      0.0%
 flops   448 x   448 x   416       20332182241280     100.0%      0.0%      0.0%
 flops   416 x   448 x   448       20332182241280     100.0%      0.0%      0.0%
 flops   448 x   416 x   448       20332182241280     100.0%      0.0%      0.0%
 flops   448 x   448 x   425       20772061184000     100.0%      0.0%      0.0%
 flops   425 x   448 x   448       20772061184000     100.0%      0.0%      0.0%
 flops   448 x   425 x   448       20772061184000     100.0%      0.0%      0.0%
 flops   416 x   416 x  1878       25556634574848     100.0%      0.0%      0.0%
 flops   416 x   416 x  1884       25638285164544     100.0%      0.0%      0.0%
 flops   416 x   425 x  1878       26109542534400     100.0%      0.0%      0.0%
 flops   425 x   416 x  1878       26109542534400     100.0%      0.0%      0.0%
 flops   416 x   425 x  1884       26192959603200     100.0%      0.0%      0.0%
 flops   425 x   416 x  1884       26192959603200     100.0%      0.0%      0.0%
 flops   425 x   425 x  1878       26674412445000     100.0%      0.0%      0.0%
 flops   425 x   425 x  1884       26759634210000     100.0%      0.0%      0.0%
 flops  1878 x   416 x   416       31699118850048     100.0%      0.0%      0.0%
 flops  1884 x   416 x   416       31800393990144     100.0%      0.0%      0.0%
 flops  1878 x   416 x   425       32384917094400     100.0%      0.0%      0.0%
 flops  1878 x   425 x   416       32384917094400     100.0%      0.0%      0.0%
 flops  1884 x   416 x   425       32488383283200     100.0%      0.0%      0.0%
 flops  1884 x   425 x   416       32488383283200     100.0%      0.0%      0.0%
 flops  1878 x   425 x   425       33085552320000     100.0%      0.0%      0.0%
 flops  1884 x   425 x   425       33191256960000     100.0%      0.0%      0.0%
 flops   448 x   448 x   448       43792392519680     100.0%      0.0%      0.0%
 flops   416 x   448 x  1878       55045059084288     100.0%      0.0%      0.0%
 flops   448 x   416 x  1878       55045059084288     100.0%      0.0%      0.0%
 flops   416 x   448 x  1884       55220921892864     100.0%      0.0%      0.0%
 flops   448 x   416 x  1884       55220921892864     100.0%      0.0%      0.0%
 flops   425 x   448 x  1878       56235937766400     100.0%      0.0%      0.0%
 flops   448 x   425 x  1878       56235937766400     100.0%      0.0%      0.0%
 flops   425 x   448 x  1884       56415605299200     100.0%      0.0%      0.0%
 flops   448 x   425 x  1884       56415605299200     100.0%      0.0%      0.0%
 flops  1878 x   416 x  1878       61398705318912     100.0%      0.0%      0.0%
 flops  1878 x   416 x  1884       61594867316736     100.0%      0.0%      0.0%
 flops  1884 x   416 x  1878       61594867316736     100.0%      0.0%      0.0%
 flops  1884 x   416 x  1884       61791656030208     100.0%      0.0%      0.0%
 flops  1878 x   425 x  1878       62727042693600     100.0%      0.0%      0.0%
 flops  1878 x   425 x  1884       62927448580800     100.0%      0.0%      0.0%
 flops  1884 x   425 x  1878       62927448580800     100.0%      0.0%      0.0%
 flops  1884 x   425 x  1884       63128494742400     100.0%      0.0%      0.0%
 flops  1878 x   448 x   416       68275025215488     100.0%      0.0%      0.0%
 flops  1878 x   416 x   448       68275025215488     100.0%      0.0%      0.0%
 flops  1884 x   416 x   448       68493156286464     100.0%      0.0%      0.0%
 flops  1884 x   448 x   416       68493156286464     100.0%      0.0%      0.0%
 flops  1878 x   448 x   425       69752129126400     100.0%      0.0%      0.0%
 flops  1878 x   425 x   448       69752129126400     100.0%      0.0%      0.0%
 flops  1884 x   425 x   448       69974979379200     100.0%      0.0%      0.0%
 flops  1884 x   448 x   425       69974979379200     100.0%      0.0%      0.0%
 flops    13 x    13 x   416       71836597391104       0.0%    100.0%      0.0%
 flops    13 x    13 x   425       73390754546200       0.0%    100.0%      0.0%
 flops   448 x   448 x  1878      118558588796928     100.0%      0.0%      0.0%
 flops   448 x   448 x  1884      118937370230784     100.0%      0.0%      0.0%
 flops  1878 x   448 x  1878      132243365302272     100.0%      0.0%      0.0%
 flops  1878 x   448 x  1884      132665868066816     100.0%      0.0%      0.0%
 flops  1884 x   448 x  1878      132665868066816     100.0%      0.0%      0.0%
 flops  1884 x   448 x  1884      133089720680448     100.0%      0.0%      0.0%
 flops  1878 x   448 x   448      147053900464128     100.0%      0.0%      0.0%
 flops  1884 x   448 x   448      147523721232384     100.0%      0.0%      0.0%
 flops    13 x    13 x   448      154724978996224       0.0%    100.0%      0.0%
 flops    13 x    32 x    13     1265500607065344       0.0%    100.0%      0.0%
 flops inhomo. stacks                           0       0.0%      0.0%      0.0%
 flops total                         4.937885E+15      67.8%     32.2%      0.0%
 flops max/rank                    327.347156E+12      66.8%     33.2%      0.0%
 matmuls inhomo. stacks                         0       0.0%      0.0%      0.0%
 matmuls total                       124273194402       0.0%    100.0%      0.0%
 number of processed stacks             133847644       3.8%     96.2%      0.0%
 average stack size                                     1.0     965.2       0.0
 marketing flops                     6.660381E+15
 -------------------------------------------------------------------------------
 # multiplications                          96927
 max memory usage/rank               2.055188E+09
 # max total images/rank                        1
 # max 3D layers                                1
 # MPI messages exchanged                 9304992
 MPI messages size (bytes):
  total size                        50.805269E+12
  min size                           0.000000E+00
  max size                          28.395648E+06
  average size                       5.460002E+06
 MPI breakdown and total messages size (bytes):
             size <=      128               33396                        0
       128 < size <=     8192                   0                        0
      8192 < size <=    32768                   0                        0
     32768 < size <=   131072                3036                336249144
    131072 < size <=  4194304             4092672            6174141542784
   4194304 < size <= 16777216             4720248           33872406495264
  16777216 < size                          455640           10741593105552
 -------------------------------------------------------------------------------

 MEMORY| Estimated peak process memory [MiB]                                1960

 -------------------------------------------------------------------------------
 -                                                                             -
 -                         MESSAGE PASSING PERFORMANCE                         -
 -                                                                             -
 -------------------------------------------------------------------------------

 ROUTINE             CALLS      AVE VOLUME [Bytes]
 MP_Group             2907
 MP_Bcast            31656                  15366.
 MP_Allreduce       616287                    233.
 MP_Sync                 4
 MP_Alltoall        415080               36295661.
 MP_SendRecv         10920                  25796.
 MP_ISendRecv       309630                 730080.
 MP_Wait           5193203
 MP_ISend          1717876                2342144.
 MP_IRecv          1717876                2347149.
 MP_Recv             25602                1392818.
 MP_Memory         4267748
 -------------------------------------------------------------------------------


 -------------------------------------------------------------------------------
 -                                                                             -
 -                           R E F E R E N C E S                               -
 -                                                                             -
 -------------------------------------------------------------------------------
 
 CP2K version 7.0 (Development Version), the CP2K developers group (2018).
 CP2K is freely available from https://www.cp2k.org/ .

 Schuett, Ole; Messmer, Peter; Hutter, Juerg; VandeVondele, Joost. 
 Electronic Structure Calculations on Graphics Processing Units, John Wiley & Sons, Ltd, 173-190 (2016). 
 GPU-Accelerated Sparse Matrix-Matrix Multiplication for Linear Scaling Density Functional Theory.
 http://dx.doi.org/10.1002/9781118670712.ch8


 Borstnik, U; VandeVondele, J; Weber, V; Hutter, J. 
 PARALLEL COMPUTING, 40 (5-6), 47-58 (2014). 
 Sparse matrix multiplication: The distributed block-compressed sparse
 row library.
 http://dx.doi.org/10.1016/j.parco.2014.03.012


 Hutter, J; Iannuzzi, M; Schiffmann, F; VandeVondele, J. 
 WILEY INTERDISCIPLINARY REVIEWS-COMPUTATIONAL MOLECULAR SCIENCE, 4 (1), 15-25 (2014). 
 CP2K: atomistic simulations of condensed matter systems.
 http://dx.doi.org/10.1002/wcms.1159


 Grimme, S; Ehrlich, S; Goerigk, L. 
 JOURNAL OF COMPUTATIONAL CHEMISTRY, 32, 1456 (2011). 
 Effect of the damping function in dispersion corrected density functional theory.
 http://dx.doi.org/10.1002/jcc.21759


 Grimme, S; Antony, J; Ehrlich, S; Krieg, H. 
 JOURNAL OF CHEMICAL PHYSICS, 132 (15), 154104 (2010). 
 A consistent and accurate ab initio parametrization of density
 functional dispersion correction (DFT-D) for the 94 elements H-Pu.
 http://dx.doi.org/10.1063/1.3382344


 VandeVondele, J; Hutter, J. 
 JOURNAL OF CHEMICAL PHYSICS, 127 (11), 114105 (2007). 
 Gaussian basis sets for accurate calculations on molecular systems in
 gas and condensed phases.
 http://dx.doi.org/10.1063/1.2770708


 Krack, M. 
 THEORETICAL CHEMISTRY ACCOUNTS, 114 (1-3), 145-152 (2005). 
 Pseudopotentials for H to Kr optimized for gradient-corrected
 exchange-correlation functionals.
 http://dx.doi.org/10.1007/s00214-005-0655-y


 VandeVondele, J; Krack, M; Mohamed, F; Parrinello, M; Chassaing, T;
 Hutter, J. COMPUTER PHYSICS COMMUNICATIONS, 167 (2), 103-128 (2005). 
 QUICKSTEP: Fast and accurate density functional calculations using a
 mixed Gaussian and plane waves approach.
 http://dx.doi.org/10.1016/j.cpc.2004.12.014


 Frigo, M; Johnson, SG. 
 PROCEEDINGS OF THE IEEE, 93 (2), 216-231 (2005). 
 The design and implementation of FFTW3.
 http://dx.doi.org/10.1109/JPROC.2004.840301


 Kolafa, J. 
 JOURNAL OF COMPUTATIONAL CHEMISTRY, 25 (3), 335-342 (2004). 
 Time-reversible always stable predictor-corrector method for molecular dynamics of polarizable molecules.
 http://dx.doi.org/10.1002/jcc.10385


 VandeVondele, J; Hutter, J. 
 JOURNAL OF CHEMICAL PHYSICS, 118 (10), 4365-4369 (2003). 
 An efficient orbital transformation method for electronic structure
 calculations.
 http://dx.doi.org/10.1063/1.1543154


 Hartwigsen, C; Goedecker, S; Hutter, J. 
 PHYSICAL REVIEW B, 58 (7), 3641-3662 (1998). 
 Relativistic separable dual-space Gaussian pseudopotentials from H to Rn.
 http://dx.doi.org/10.1103/PhysRevB.58.3641


 Lippert, G; Hutter, J; Parrinello, M. 
 MOLECULAR PHYSICS, 92 (3), 477-487 (1997). 
 A hybrid Gaussian and plane wave density functional scheme.
 http://dx.doi.org/10.1080/002689797170220


 Perdew, JP; Burke, K; Ernzerhof, M. 
 PHYSICAL REVIEW LETTERS, 77 (18), 3865-3868 (1996). 
 Generalized gradient approximation made simple.
 http://dx.doi.org/10.1103/PhysRevLett.77.3865


 Goedecker, S; Teter, M; Hutter, J. 
 PHYSICAL REVIEW B, 54 (3), 1703-1710 (1996). 
 Separable dual-space Gaussian pseudopotentials.
 http://dx.doi.org/10.1103/PhysRevB.54.1703


 -------------------------------------------------------------------------------
 -                                                                             -
 -                                T I M I N G                                  -
 -                                                                             -
 -------------------------------------------------------------------------------
 SUBROUTINE                       CALLS  ASD         SELF TIME        TOTAL TIME
                                MAXIMUM       AVERAGE  MAXIMUM  AVERAGE  MAXIMUM
 CP2K                                 1  1.0      0.1      0.1 119094.6 119095.7
 cp_geo_opt                           1  2.0      0.0      0.0 119092.5 119093.6
 geoopt_bfgs                          1  3.0      0.2      0.2 119092.5 119093.6
 cp_eval_at                         183  4.0      0.0      0.1 118939.9 118941.0
 qs_forces                          182  5.0      0.1      0.1 118728.0 118729.2
 qs_energies                        183  6.0      0.0      0.0 115707.5 115711.8
 scf_env_do_scf                     183  7.0      0.0      0.1 113128.5 113129.4
 scf_env_do_scf_inner_loop         4978  8.0      0.3      0.9 108318.5 108534.3
 rebuild_ks_matrix                 5160  9.9      0.1      0.1  70072.8  70221.2
 qs_ks_build_kohn_sham_matrix      5160 10.9      1.2      1.3  70072.8  70221.2
 qs_ks_update_qs_env               5231  9.0      0.1      0.1  67497.9  67641.7
 pw_transfer                      98228 13.6     12.7     14.1  51378.4  51929.7
 fft_wrap_pw1pw2                  87908 14.6      1.5      1.7  50920.1  51583.7
 fft_wrap_pw1pw2_150              56945 15.7   3509.2   3887.2  48728.3  49403.9
 qs_vxc_create                     5160 11.9      0.2      0.2  39714.1  40012.9
 xc_vxc_pw_create                  5160 12.9    480.7    558.0  39713.9  40012.8
 fft3d_ps                         87908 16.6  17686.4  19007.9  35376.0  36623.9
 qs_rho_update_rho                 5161  9.0      0.1      0.1  23821.9  23954.3
 calculate_rho_elec                5161 10.0   9258.6  10654.7  23821.8  23954.2
 dbcsr_multiply_generic           96927 14.0     11.6     12.7  23137.7  23302.4
 qs_scf_new_mos                    4978  9.0      0.1      0.1  21115.1  21394.5
 qs_scf_loop_do_ot                 4978 10.0      0.1      0.1  21115.0  21394.4
 sum_up_and_integrate              5160 11.9    114.5    126.9  21372.2  21389.9
 integrate_v_rspace                5160 12.9  11091.3  12581.2  21257.7  21303.9
 ot_scf_mini                       4978 11.0      0.4      0.5  19405.9  19665.2
 multiply_cannon                  96927 15.0     22.5     25.4  18268.2  18860.2
 xc_rho_set_and_dset_create        5160 13.9    200.5    219.7  18575.9  18756.9
 multiply_cannon_multrec         387708 16.0  14621.5  15448.7  14624.1  15451.1
 density_rs2pw                     5161 11.0      0.4      0.4  13467.6  14847.7
 mp_alltoall_z22v                 87908 18.6   9591.5  14075.3   9591.5  14075.3
 ot_mini                           4978 12.0      0.1      0.1  13033.2  13336.2
 x_to_yz                          46441 18.1   4399.8   4891.2   9393.5  10778.0
 yz_to_x                          41467 17.1   3695.9   3971.6   8293.6  10117.2
 qs_ot_get_derivative              4978 13.0      0.1      0.1   8393.7   8657.9
 pw_gather_p                      41467 16.1   7826.1   8249.7   7826.1   8249.7
 potential_pw2rs                   5160 13.9     10.2     10.9   7799.6   7837.2
 rs_pw_transfer                   41649 13.4      1.0      1.2   5414.6   6771.5
 qs_ot_get_derivative_taylor       4759 14.0      0.3      0.4   5355.3   5609.6
 init_scf_loop                      253  8.0      0.0      0.0   4585.0   4585.5
 ot_diis_step                      4978 13.0      0.4      0.4   4574.2   4574.2
 pw_scatter_p                     46441 17.1   4094.8   4232.4   4094.8   4232.4
 rs_distribute_matrix             10503 12.4    126.6    154.7   2847.4   4211.4
 mp_alltoall_d11v                 64632 15.2   2758.1   4139.6   2758.1   4139.6
 mp_waitany                      168056 15.4   2764.5   4111.4   2764.5   4111.4
 apply_preconditioner_dbcsr        5231 14.0      0.0      0.0   4004.8   4097.0
 apply_single                      5231 15.0      0.0      0.0   4004.8   4097.0
 rs_pw_transfer_RS2PW_150          5344 13.0    639.1    685.0   2726.2   4062.2
 mp_waitall_1                   5025147 17.6   3438.8   3925.1   3438.8   3925.1
 xc_functional_eval                5160 14.9      0.1      0.1   3595.1   3698.0
 pbe_lda_eval                      5160 15.9   3595.0   3698.0   3595.0   3698.0
 make_m2s                        193854 15.0      7.2      7.8   2973.7   3085.0
 pw_derive                        30960 14.4   2359.6   2769.7   2359.6   2769.7
 qs_ks_update_qs_env_forces         182  6.0      0.0      0.0   2645.4   2650.1
 mp_sum_d                        110994 14.4   1538.0   2601.9   1538.0   2601.9
 -------------------------------------------------------------------------------

 The number of warnings for this run is : 1
 
 -------------------------------------------------------------------------------
  **** **** ******  **  PROGRAM ENDED AT                 2023-10-11 04:07:20.059
 ***** ** ***  *** **   PROGRAM RAN ON                                sebnode131
 **    ****   ******    PROGRAM RAN BY                                    luehrs
 ***** **    ** ** **   PROGRAM PROCESS ID                                377303
  **** **  *******  **  PROGRAM STOPPED IN /home/luehrs/PhD/Li-S_paper/Li-S-Surf
                                           ace_Reaction/Third_Lithiation_of_S8_S
                                           urface/Third_Lithiation_around_S8/Thi
                                           rd_Lithiation_L4/Third_Lithiation_par
                                           allel/1.S8_p
