 DBCSR| Multiplication driver                                               XSMM
 DBCSR| Multrec recursion limit                                              512
 DBCSR| Multiplication stack size                                           1000
 DBCSR| Maximum elements for images                                    UNLIMITED
 DBCSR| Multiplicative factor virtual images                                   1
 DBCSR| Multiplication size stacks                                             3
 DBCSR| Number of 3D layers                                               SINGLE
 DBCSR| Use MPI memory allocation                                              T
 DBCSR| Use RMA algorithm                                                      F
 DBCSR| Use Communication thread                                               T
 DBCSR| Communication thread load                                             87


  **** **** ******  **  PROGRAM STARTED AT               2024-02-01 18:16:01.860
 ***** ** ***  *** **   PROGRAM STARTED ON                            sebnode105
 **    ****   ******    PROGRAM STARTED BY                                luehrs
 ***** **    ** ** **   PROGRAM PROCESS ID                               2440199
  **** **  *******  **  PROGRAM STARTED IN /home/luehrs/PhD/Li-S_paper/Li-S-Surf
                                           ace_Reaction/Third_Lithiation_of_S8_S
                                           urface/Third_Lithiation_around_S8/Thi
                                           rd_Lithiation_L4/Third_Lithiation_par
                                           allel/3.S8_p

 CP2K| version string:                    CP2K version 7.0 (Development Version)
 CP2K| source code revision number:                                             
 CP2K| cp2kflags: libint fftw3 libxc parallel mpi3 scalapack xsmm libderiv_max_a
 CP2K|            m1=8 libint_max_am=9 max_contr=4
 CP2K| is freely available from                            https://www.cp2k.org/
 CP2K| Program compiled at                         Sun Jun 24 14:37:16 CEST 2018
 CP2K| Program compiled on                                            sebstorage
 CP2K| Program compiled for                                Linux-x86-64-gfortran
 CP2K| Data directory path    /home/brehm/Software_Batchnode/2018/Source/cp2k_18
 CP2K| Input file name                                                input3.inp

 GLOBAL| Force Environment number                                              1
 GLOBAL| Basis set file name                                      ./BASIS_MOLOPT
 GLOBAL| Potential file name                                    ./GTH_POTENTIALS
 GLOBAL| MM Potential file name                                     MM_POTENTIAL
 GLOBAL| Coordinate file name            ./Third_lithiation_S8_3.p_relaxed_1.xyz
 GLOBAL| Method name                                                        CP2K
 GLOBAL| Project name                                                 Li_react_2
 GLOBAL| Preferred FFT library                                             FFTW3
 GLOBAL| Preferred diagonalization lib.                                       SL
 GLOBAL| Run type                                                        GEO_OPT
 GLOBAL| All-to-all communication in single precision                          F
 GLOBAL| FFTs using library dependent lengths                                  F
 GLOBAL| Global print level                                                  LOW
 GLOBAL| Total number of message passing processes                            16
 GLOBAL| Number of threads for this process                                    1
 GLOBAL| This output is from process                                           0
 GLOBAL| CPU model name :  Intel(R) Xeon(R) CPU E5-2620 v4 @ 2.10GHz

 MEMORY| system memory details [Kb]
 MEMORY|                        rank 0           min           max       average
 MEMORY| MemTotal             65847880      65847880      65847880      65847880
 MEMORY| MemFree              63372104      63372104      63372104      63372104
 MEMORY| Buffers                 56980         56980         56980         56980
 MEMORY| Cached                 147760        147760        147760        147760
 MEMORY| Slab                   487960        487960        487960        487960
 MEMORY| SReclaimable           128276        128276        128276        128276
 MEMORY| MemLikelyFree        63705120      63705120      63705120      63705120


 GENERATE|  Preliminary Number of Bonds generated:                             0
 GENERATE|  Achieved consistency in connectivity generation.

 *******************************************************************************
 *******************************************************************************
 **                                                                           **
 **     #####                         ##              ##                      **
 **    ##   ##            ##          ##              ##                      **
 **   ##     ##                       ##            ######                    **
 **   ##     ##  ##   ##  ##   #####  ##  ##   ####   ##    #####    #####    **
 **   ##     ##  ##   ##  ##  ##      ## ##   ##      ##   ##   ##  ##   ##   **
 **   ##  ## ##  ##   ##  ##  ##      ####     ###    ##   ######   ######    **
 **    ##  ###   ##   ##  ##  ##      ## ##      ##   ##   ##       ##        **
 **     #######   #####   ##   #####  ##  ##  ####    ##    #####   ##        **
 **           ##                                                    ##        **
 **                                                                           **
 **                                                ... make the atoms dance   **
 **                                                                           **
 **            Copyright (C) by CP2K developers group (2000 - 2018)           **
 **                                                                           **
 *******************************************************************************


 TOTAL NUMBERS AND MAXIMUM NUMBERS

  Total number of            - Atomic kinds:                                   2
                             - Atoms:                                        582
                             - Shell sets:                                   582
                             - Shells:                                      2904
                             - Primitive Cartesian functions:               3486
                             - Cartesian basis functions:                   8100
                             - Spherical basis functions:                   7524

  Maximum angular momentum of- Orbital basis functions:                        2
                             - Local part of the GTH pseudopotential:          6
                             - Non-local part of the GTH pseudopotential:      2


 SCF PARAMETERS         Density guess:                                   RESTART
                        --------------------------------------------------------
                        max_scf:                                              30
                        max_scf_history:                                       0
                        max_diis:                                              4
                        --------------------------------------------------------
                        eps_scf:                                        1.00E-06
                        eps_scf_history:                                0.00E+00
                        eps_diis:                                       1.00E-01
                        eps_eigval:                                     1.00E-05
                        --------------------------------------------------------
                        level_shift [a.u.]:                                 0.00
                        --------------------------------------------------------
                        Outer loop SCF in use 
                        No variables optimised in outer loop
                        eps_scf                                         1.00E-06
                        max_scf                                               25
                        DIIS optimization
                        DIIS buffer length                                     3
                        step_size                                       5.00E-01

 BFGS| Use rational function optimization for step estimation:                NO
 BFGS| Use model Hessian for initial guess:                                  YES
 BFGS| Restart Hessian:                                                       NO
 BFGS| Trust radius:                                                       0.472

 *******************************************************************************
 ***                     STARTING GEOMETRY OPTIMIZATION                      ***
 ***                                   BFGS                                  ***
 *******************************************************************************

 Number of electrons:                                                       3474
 Number of occupied orbitals:                                               1737
 Number of molecular orbitals:                                              1737

 Number of orbital functions:                                               7524
 Number of independent orbital functions:                                   7524

 Extrapolation method: initial_guess

 *** WARNING in qs_initial_guess.F:263 :: User requested to restart the   ***
 *** wavefunction from the file named: Li_react_2-RESTART.wfn. This file  ***
 *** does not exist. Please check the existence of the file or change     ***
 *** properly the value of the keyword WFN_RESTART_FILE_NAME. Calculation ***
 *** continues using ATOMIC GUESS.                                        ***



 SCF WAVEFUNCTION OPTIMIZATION

  ----------------------------------- OT ---------------------------------------
  Minimizer      : DIIS                : direct inversion
                                         in the iterative subspace
                                         using   8 DIIS vectors
                                         safer DIIS on
  Preconditioner : FULL_KINETIC        : inversion of T + eS
  Precond_solver : DEFAULT
  stepsize       :    0.15000000                  energy_gap     :    0.00010000
  eps_taylor     :   0.10000E-15                  max_taylor     :             4
  ----------------------------------- OT ---------------------------------------

  Step     Update method      Time    Convergence         Total energy    Change
  ------------------------------------------------------------------------------
     1 OT DIIS     0.15E+00   18.4     0.00642895     -5756.7660044251 -5.76E+03
     2 OT DIIS     0.15E+00   18.2     0.02477725     -5757.3464516145 -5.80E-01
     3 OT DIIS     0.15E+00   18.3     0.00668667     -5810.1442658333 -5.28E+01
     4 OT DIIS     0.15E+00   18.3     0.00777425     -5827.6851511669 -1.75E+01
     5 OT DIIS     0.15E+00   18.4     0.00574701     -5844.1930123274 -1.65E+01
     6 OT DIIS     0.15E+00   18.3     0.00372881     -5857.7488974584 -1.36E+01
     7 OT DIIS     0.15E+00   18.4     0.00273014     -5873.6075066967 -1.59E+01
     8 OT DIIS     0.15E+00   18.2     0.00293400     -5883.6109856050 -1.00E+01
     9 OT DIIS     0.15E+00   18.4     0.00201970     -5891.6997576694 -8.09E+00
    10 OT DIIS     0.15E+00   18.4     0.00190896     -5896.7382298740 -5.04E+00
    11 OT DIIS     0.15E+00   18.4     0.00157112     -5901.3234313255 -4.59E+00
    12 OT DIIS     0.15E+00   18.4     0.00188951     -5904.0864819287 -2.76E+00
    13 OT DIIS     0.15E+00   18.4     0.00127321     -5907.4623165904 -3.38E+00
    14 OT DIIS     0.15E+00   18.4     0.00123383     -5910.1596793357 -2.70E+00
    15 OT DIIS     0.15E+00   18.4     0.00095195     -5912.9171235638 -2.76E+00
    16 OT DIIS     0.15E+00   18.4     0.00082249     -5915.4086431668 -2.49E+00
    17 OT DIIS     0.15E+00   18.4     0.00095516     -5917.2123400874 -1.80E+00
    18 OT DIIS     0.15E+00   18.3     0.00078545     -5918.4842253062 -1.27E+00
    19 OT DIIS     0.15E+00   18.4     0.00064260     -5919.9949606578 -1.51E+00
    20 OT DIIS     0.15E+00   18.4     0.00072434     -5921.0187452809 -1.02E+00
    21 OT DIIS     0.15E+00   18.3     0.00062375     -5921.9109650792 -8.92E-01
    22 OT DIIS     0.15E+00   18.4     0.00059379     -5922.6234562596 -7.12E-01
    23 OT DIIS     0.15E+00   18.4     0.00049955     -5923.2163979337 -5.93E-01
    24 OT DIIS     0.15E+00   18.3     0.00044851     -5923.9002944784 -6.84E-01
    25 OT DIIS     0.15E+00   18.3     0.00046208     -5924.1946603136 -2.94E-01
    26 OT DIIS     0.15E+00   18.3     0.00038461     -5924.7066074306 -5.12E-01
    27 OT DIIS     0.15E+00   18.3     0.00036217     -5924.9914585946 -2.85E-01
    28 OT DIIS     0.15E+00   18.3     0.00036447     -5925.2780041207 -2.87E-01
    29 OT DIIS     0.15E+00   18.3     0.00031977     -5925.5136346937 -2.36E-01
    30 OT DIIS     0.15E+00   18.3     0.00031818     -5925.7204768101 -2.07E-01

  Leaving inner SCF loop after reaching    30 steps.


  Electronic density on regular grids:      -3473.9999999993        0.0000000007
  Core density on regular grids:             3473.9999999952       -0.0000000048
  Total charge density on r-space grids:       -0.0000000041
  Total charge density g-space grids:          -0.0000000031

  Overlap energy of the core charge distribution:               0.00000032682531
  Self energy of the core charge distribution:             -13965.50565932552126
  Core Hamiltonian energy:                                   3146.53584894560527
  Hartree energy:                                            6202.80874282932746
  Exchange-correlation energy:                              -1307.08822533926559
  Dispersion energy:                                           -2.47118424711848

  Total energy:                                             -5925.72047681014828

  outer SCF iter =    1 RMS gradient =   0.32E-03 energy =      -5925.7204768101

  ----------------------------------- OT ---------------------------------------
  Minimizer      : DIIS                : direct inversion
                                         in the iterative subspace
                                         using   8 DIIS vectors
                                         safer DIIS on
  Preconditioner : FULL_KINETIC        : inversion of T + eS
  Precond_solver : DEFAULT
  stepsize       :    0.15000000                  energy_gap     :    0.00010000
  eps_taylor     :   0.10000E-15                  max_taylor     :             4
  ----------------------------------- OT ---------------------------------------

  Step     Update method      Time    Convergence         Total energy    Change
  ------------------------------------------------------------------------------
     1 OT DIIS     0.15E+00   41.0     0.00038438     -5925.8887514420 -1.68E-01
     2 OT DIIS     0.15E+00   17.9     0.00092530     -5925.9894233243 -1.01E-01
     3 OT DIIS     0.15E+00   17.9     0.00032319     -5926.1327797473 -1.43E-01
     4 OT DIIS     0.15E+00   18.4     0.00037474     -5926.3162918219 -1.84E-01
     5 OT DIIS     0.15E+00   18.4     0.00037905     -5926.4572583009 -1.41E-01
     6 OT DIIS     0.15E+00   18.3     0.00023392     -5926.6142204665 -1.57E-01
     7 OT DIIS     0.15E+00   18.4     0.00024142     -5926.7941630712 -1.80E-01
     8 OT DIIS     0.15E+00   18.4     0.00027848     -5926.9760161500 -1.82E-01
     9 OT DIIS     0.15E+00   18.4     0.00021025     -5927.0870691453 -1.11E-01
    10 OT DIIS     0.15E+00   18.4     0.00019185     -5927.2044087225 -1.17E-01
    11 OT DIIS     0.15E+00   18.3     0.00021756     -5927.3104151573 -1.06E-01
    12 OT DIIS     0.15E+00   18.4     0.00020941     -5927.3353254616 -2.49E-02
    13 OT DIIS     0.15E+00   18.4     0.00019827     -5927.3943487306 -5.90E-02
    14 OT DIIS     0.15E+00   18.4     0.00017822     -5927.4481614253 -5.38E-02
    15 OT DIIS     0.15E+00   18.4     0.00014783     -5927.4753268927 -2.72E-02
    16 OT DIIS     0.15E+00   18.4     0.00011211     -5927.5104847881 -3.52E-02
    17 OT DIIS     0.15E+00   18.4     0.00010762     -5927.5451734243 -3.47E-02
    18 OT DIIS     0.15E+00   18.3     0.00011481     -5927.5644896045 -1.93E-02
    19 OT DIIS     0.15E+00   18.4     0.00009781     -5927.5853305494 -2.08E-02
    20 OT DIIS     0.15E+00   18.4     0.00009627     -5927.6123430998 -2.70E-02
    21 OT DIIS     0.15E+00   18.4     0.00011101     -5927.6209887363 -8.65E-03
    22 OT DIIS     0.15E+00   18.4     0.00009907     -5927.6379762887 -1.70E-02
    23 OT DIIS     0.15E+00   18.4     0.00009497     -5927.6525033101 -1.45E-02
    24 OT DIIS     0.15E+00   18.4     0.00008661     -5927.6615592933 -9.06E-03
    25 OT DIIS     0.15E+00   18.4     0.00007568     -5927.6746569496 -1.31E-02
    26 OT DIIS     0.15E+00   18.4     0.00007174     -5927.6884614692 -1.38E-02
    27 OT DIIS     0.15E+00   18.4     0.00007386     -5927.6972141494 -8.75E-03
    28 OT DIIS     0.15E+00   18.3     0.00006767     -5927.7050082186 -7.79E-03
    29 OT DIIS     0.15E+00   18.3     0.00006604     -5927.7153715316 -1.04E-02
    30 OT DIIS     0.15E+00   18.4     0.00006810     -5927.7190233813 -3.65E-03

  Leaving inner SCF loop after reaching    30 steps.


  Electronic density on regular grids:      -3473.9999999993        0.0000000007
  Core density on regular grids:             3473.9999999952       -0.0000000048
  Total charge density on r-space grids:       -0.0000000041
  Total charge density g-space grids:          -0.0000000031

  Overlap energy of the core charge distribution:               0.00000032682531
  Self energy of the core charge distribution:             -13965.50565932552126
  Core Hamiltonian energy:                                   3144.47597966059584
  Hartree energy:                                            6203.25606102634447
  Exchange-correlation energy:                              -1307.47422082243565
  Dispersion energy:                                           -2.47118424711848

  Total energy:                                             -5927.71902338131076

  outer SCF iter =    2 RMS gradient =   0.68E-04 energy =      -5927.7190233813

  ----------------------------------- OT ---------------------------------------
  Minimizer      : DIIS                : direct inversion
                                         in the iterative subspace
                                         using   8 DIIS vectors
                                         safer DIIS on
  Preconditioner : FULL_KINETIC        : inversion of T + eS
  Precond_solver : DEFAULT
  stepsize       :    0.15000000                  energy_gap     :    0.00010000
  eps_taylor     :   0.10000E-15                  max_taylor     :             4
  ----------------------------------- OT ---------------------------------------

  Step     Update method      Time    Convergence         Total energy    Change
  ------------------------------------------------------------------------------
     1 OT DIIS     0.15E+00   45.5     0.00007292     -5927.7247962804 -5.77E-03
     2 OT DIIS     0.15E+00   17.9     0.00010497     -5927.7335927439 -8.80E-03
     3 OT DIIS     0.15E+00   17.8     0.00007079     -5927.7361566469 -2.56E-03
     4 OT DIIS     0.15E+00   17.9     0.00007736     -5927.7477520953 -1.16E-02
     5 OT DIIS     0.15E+00   17.9     0.00006972     -5927.7551342153 -7.38E-03
     6 OT DIIS     0.15E+00   17.9     0.00006672     -5927.7588764786 -3.74E-03
     7 OT SD       0.15E+00   17.9     0.00006684     -5927.7622738769 -3.40E-03
     8 OT SD       0.15E+00   17.9     0.00006727     -5927.7710371881 -8.76E-03
     9 OT SD       0.15E+00   18.3     0.00007192     -5927.7797660070 -8.73E-03
    10 OT SD       0.15E+00   18.4     0.00015604     -5927.7857997211 -6.03E-03
    11 OT DIIS     0.15E+00   18.4     0.00081217     -5927.7030103591  8.28E-02
    12 OT DIIS     0.15E+00   18.4     0.00008954     -5927.7938780139 -9.09E-02
    13 OT SD       0.15E+00   18.4     0.00007723     -5927.8232378655 -2.94E-02
    14 OT SD       0.15E+00   18.4     0.00016906     -5927.8287148331 -5.48E-03
    15 OT DIIS     0.15E+00   18.4     0.00088620     -5927.7289518192  9.98E-02
    16 OT SD       0.15E+00   18.4     0.00007051     -5927.8027558290 -7.38E-02
    17 OT DIIS     0.15E+00   18.4     0.00009646     -5927.8112464550 -8.49E-03
    18 OT DIIS     0.15E+00   18.4     0.00007992     -5927.8464691942 -3.52E-02
    19 OT DIIS     0.15E+00   18.4     0.00006861     -5927.8791858750 -3.27E-02
    20 OT DIIS     0.15E+00   18.4     0.00009246     -5927.9150140087 -3.58E-02
    21 OT DIIS     0.15E+00   18.2     0.00010490     -5927.9185406133 -3.53E-03
    22 OT DIIS     0.15E+00   18.3     0.00003167     -5927.9200681354 -1.53E-03
    23 OT DIIS     0.15E+00   18.3     0.00003887     -5927.9179672785  2.10E-03
    24 OT DIIS     0.15E+00   18.3     0.00003244     -5927.9189201470 -9.53E-04
    25 OT DIIS     0.15E+00   18.3     0.00003794     -5927.9215729843 -2.65E-03
    26 OT DIIS     0.15E+00   18.3     0.00001596     -5927.9219825263 -4.10E-04
    27 OT DIIS     0.15E+00   18.3     0.00001157     -5927.9224148323 -4.32E-04
    28 OT DIIS     0.15E+00   18.3     0.00001299     -5927.9226141008 -1.99E-04
    29 OT DIIS     0.15E+00   18.3     0.00001046     -5927.9227219303 -1.08E-04
    30 OT DIIS     0.15E+00   18.3     0.00001093     -5927.9229023145 -1.80E-04

  Leaving inner SCF loop after reaching    30 steps.


  Electronic density on regular grids:      -3473.9999999993        0.0000000007
  Core density on regular grids:             3473.9999999952       -0.0000000048
  Total charge density on r-space grids:       -0.0000000041
  Total charge density g-space grids:          -0.0000000031

  Overlap energy of the core charge distribution:               0.00000032682531
  Self energy of the core charge distribution:             -13965.50565932552126
  Core Hamiltonian energy:                                   3144.25251287434457
  Hartree energy:                                            6203.32232282421501
  Exchange-correlation energy:                              -1307.52089476725996
  Dispersion energy:                                           -2.47118424711848

  Total energy:                                             -5927.92290231451443

  outer SCF iter =    3 RMS gradient =   0.11E-04 energy =      -5927.9229023145

  ----------------------------------- OT ---------------------------------------
  Minimizer      : DIIS                : direct inversion
                                         in the iterative subspace
                                         using   8 DIIS vectors
                                         safer DIIS on
  Preconditioner : FULL_KINETIC        : inversion of T + eS
  Precond_solver : DEFAULT
  stepsize       :    0.15000000                  energy_gap     :    0.00010000
  eps_taylor     :   0.10000E-15                  max_taylor     :             4
  ----------------------------------- OT ---------------------------------------

  Step     Update method      Time    Convergence         Total energy    Change
  ------------------------------------------------------------------------------
     1 OT DIIS     0.15E+00   40.7     0.00001082     -5927.9230097373 -1.07E-04
     2 OT DIIS     0.15E+00   17.8     0.00002951     -5927.9230632730 -5.35E-05
     3 OT DIIS     0.15E+00   17.9     0.00000882     -5927.9232005382 -1.37E-04
     4 OT DIIS     0.15E+00   17.9     0.00001379     -5927.9233481313 -1.48E-04
     5 OT DIIS     0.15E+00   17.9     0.00000937     -5927.9235310210 -1.83E-04
     6 OT DIIS     0.15E+00   17.9     0.00000646     -5927.9236407867 -1.10E-04
     7 OT DIIS     0.15E+00   18.0     0.00000682     -5927.9238997958 -2.59E-04
     8 OT DIIS     0.15E+00   17.9     0.00000752     -5927.9240813198 -1.82E-04
     9 OT DIIS     0.15E+00   18.0     0.00000533     -5927.9241449202 -6.36E-05
    10 OT DIIS     0.15E+00   18.0     0.00000381     -5927.9242068404 -6.19E-05
    11 OT DIIS     0.15E+00   17.9     0.00000380     -5927.9242427704 -3.59E-05
    12 OT DIIS     0.15E+00   18.0     0.00000417     -5927.9242495315 -6.76E-06
    13 OT DIIS     0.15E+00   18.0     0.00000375     -5927.9242653204 -1.58E-05
    14 OT DIIS     0.15E+00   18.0     0.00000281     -5927.9242754489 -1.01E-05
    15 OT DIIS     0.15E+00   18.0     0.00000233     -5927.9242799172 -4.47E-06
    16 OT DIIS     0.15E+00   18.0     0.00000179     -5927.9242857840 -5.87E-06
    17 OT DIIS     0.15E+00   18.0     0.00000161     -5927.9242915160 -5.73E-06
    18 OT DIIS     0.15E+00   18.0     0.00000148     -5927.9242958392 -4.32E-06
    19 OT DIIS     0.15E+00   18.0     0.00000189     -5927.9243014776 -5.64E-06
    20 OT DIIS     0.15E+00   18.0     0.00000145     -5927.9243048571 -3.38E-06
    21 OT DIIS     0.15E+00   18.0     0.00000159     -5927.9243073105 -2.45E-06
    22 OT DIIS     0.15E+00   18.0     0.00000140     -5927.9243097881 -2.48E-06
    23 OT DIIS     0.15E+00   17.9     0.00000131     -5927.9243121567 -2.37E-06
    24 OT DIIS     0.15E+00   17.9     0.00000118     -5927.9243133650 -1.21E-06
    25 OT DIIS     0.15E+00   17.9     0.00000116     -5927.9243151990 -1.83E-06
    26 OT DIIS     0.15E+00   17.9     0.00000107     -5927.9243163972 -1.20E-06
    27 OT DIIS     0.15E+00   17.9     0.00000083     -5927.9243173074 -9.10E-07

  *** SCF run converged in    27 steps ***


  Electronic density on regular grids:      -3474.0000000003       -0.0000000003
  Core density on regular grids:             3473.9999999952       -0.0000000048
  Total charge density on r-space grids:       -0.0000000051
  Total charge density g-space grids:          -0.0000000042

  Overlap energy of the core charge distribution:               0.00000032682531
  Self energy of the core charge distribution:             -13965.50565932552126
  Core Hamiltonian energy:                                   3144.25011455346430
  Hartree energy:                                            6203.32324465876809
  Exchange-correlation energy:                              -1307.52083327382297
  Dispersion energy:                                           -2.47118424711848

  Total energy:                                             -5927.92431730740554

  outer SCF iter =    4 RMS gradient =   0.83E-06 energy =      -5927.9243173074
  outer SCF loop converged in   4 iterations or  117 steps


 ENERGY| Total FORCE_EVAL ( QS ) energy (a.u.):            -5927.924318204630254


 --------  Informations at step =     0 ------------
  Optimization Method        =                 BFGS
  Total Energy               =     -5927.9243182046
  Used time                  =             2214.448
 ---------------------------------------------------

 --------------------------
 OPTIMIZATION STEP:      1
 --------------------------

 Number of electrons:                                                       3474
 Number of occupied orbitals:                                               1737
 Number of molecular orbitals:                                              1737

 Number of orbital functions:                                               7524
 Number of independent orbital functions:                                   7524

 Extrapolation method: ASPC


 SCF WAVEFUNCTION OPTIMIZATION

  ----------------------------------- OT ---------------------------------------
  Minimizer      : DIIS                : direct inversion
                                         in the iterative subspace
                                         using   8 DIIS vectors
                                         safer DIIS on
  Preconditioner : FULL_KINETIC        : inversion of T + eS
  Precond_solver : DEFAULT
  stepsize       :    0.15000000                  energy_gap     :    0.00010000
  eps_taylor     :   0.10000E-15                  max_taylor     :             4
  ----------------------------------- OT ---------------------------------------

  Step     Update method      Time    Convergence         Total energy    Change
  ------------------------------------------------------------------------------
     1 OT DIIS     0.15E+00   17.6     0.00002477     -5927.9304304130 -5.93E+03
     2 OT DIIS     0.15E+00   17.9     0.00001711     -5927.9313360918 -9.06E-04
     3 OT DIIS     0.15E+00   17.9     0.00003738     -5927.9315602343 -2.24E-04
     4 OT DIIS     0.15E+00   17.9     0.00002129     -5927.9318588586 -2.99E-04
     5 OT DIIS     0.15E+00   17.9     0.00001069     -5927.9320760472 -2.17E-04
     6 OT DIIS     0.15E+00   17.9     0.00001560     -5927.9321615189 -8.55E-05
     7 OT DIIS     0.15E+00   17.9     0.00000671     -5927.9322528832 -9.14E-05
     8 OT DIIS     0.15E+00   18.0     0.00000574     -5927.9323221584 -6.93E-05
     9 OT DIIS     0.15E+00   18.0     0.00000824     -5927.9323527306 -3.06E-05
    10 OT DIIS     0.15E+00   18.0     0.00000392     -5927.9323796456 -2.69E-05
    11 OT DIIS     0.15E+00   18.0     0.00000297     -5927.9323992073 -1.96E-05
    12 OT DIIS     0.15E+00   18.0     0.00000337     -5927.9324120607 -1.29E-05
    13 OT DIIS     0.15E+00   18.0     0.00000330     -5927.9324179518 -5.89E-06
    14 OT DIIS     0.15E+00   18.0     0.00000256     -5927.9324242334 -6.28E-06
    15 OT DIIS     0.15E+00   18.0     0.00000233     -5927.9324291736 -4.94E-06
    16 OT DIIS     0.15E+00   18.0     0.00000164     -5927.9324331849 -4.01E-06
    17 OT DIIS     0.15E+00   17.9     0.00000178     -5927.9324360647 -2.88E-06
    18 OT DIIS     0.15E+00   17.9     0.00000115     -5927.9324386454 -2.58E-06
    19 OT DIIS     0.15E+00   17.9     0.00000122     -5927.9324406046 -1.96E-06
    20 OT DIIS     0.15E+00   17.9     0.00000123     -5927.9324414920 -8.87E-07
    21 OT DIIS     0.15E+00   17.8     0.00000080     -5927.9324426536 -1.16E-06

  *** SCF run converged in    21 steps ***


  Electronic density on regular grids:      -3474.0000000003       -0.0000000003
  Core density on regular grids:             3473.9999999952       -0.0000000048
  Total charge density on r-space grids:       -0.0000000051
  Total charge density g-space grids:          -0.0000000041

  Overlap energy of the core charge distribution:               0.00000032712970
  Self energy of the core charge distribution:             -13965.50565932552126
  Core Hamiltonian energy:                                   3144.23013993268569
  Hartree energy:                                            6203.33021956041557
  Exchange-correlation energy:                              -1307.51587831939673
  Dispersion energy:                                           -2.47126482887197

  Total energy:                                             -5927.93244265355952

  outer SCF iter =    1 RMS gradient =   0.80E-06 energy =      -5927.9324426536
  outer SCF loop converged in   1 iterations or   21 steps


 ENERGY| Total FORCE_EVAL ( QS ) energy (a.u.):            -5927.932443329856142


 --------  Informations at step =     1 ------------
  Optimization Method        =                 BFGS
  Total Energy               =     -5927.9324433299
  Real energy change         =        -0.0081251252
  Predicted change in energy =        -0.0053933225
  Scaling factor             =         0.0000000000
  Step size                  =         0.1718500275
  Trust radius               =         0.4724315332
  Decrease in energy         =                  YES
  Used time                  =              419.895

  Convergence check :
  Max. step size             =         0.1718500275
  Conv. limit for step size  =         0.0030000000
  Convergence in step size   =                   NO
  RMS step size              =         0.0073786985
  Conv. limit for RMS step   =         0.0015000000
  Convergence in RMS step    =                   NO
  Max. gradient              =         0.0145632698
  Conv. limit for gradients  =         0.0004500000
  Conv. for gradients        =                   NO
  RMS gradient               =         0.0005925093
  Conv. limit for RMS grad.  =         0.0003000000
  Conv. for gradients        =                   NO
 ---------------------------------------------------

 --------------------------
 OPTIMIZATION STEP:      2
 --------------------------

 Number of electrons:                                                       3474
 Number of occupied orbitals:                                               1737
 Number of molecular orbitals:                                              1737

 Number of orbital functions:                                               7524
 Number of independent orbital functions:                                   7524

 Extrapolation method: ASPC


 SCF WAVEFUNCTION OPTIMIZATION

  ----------------------------------- OT ---------------------------------------
  Minimizer      : DIIS                : direct inversion
                                         in the iterative subspace
                                         using   8 DIIS vectors
                                         safer DIIS on
  Preconditioner : FULL_KINETIC        : inversion of T + eS
  Precond_solver : DEFAULT
  stepsize       :    0.15000000                  energy_gap     :    0.00010000
  eps_taylor     :   0.10000E-15                  max_taylor     :             4
  ----------------------------------- OT ---------------------------------------

  Step     Update method      Time    Convergence         Total energy    Change
  ------------------------------------------------------------------------------
     1 OT DIIS     0.15E+00   17.6     0.00003118     -5927.9352318952 -5.93E+03
     2 OT DIIS     0.15E+00   17.9     0.00002371     -5927.9366447937 -1.41E-03
     3 OT DIIS     0.15E+00   17.9     0.00006097     -5927.9366820043 -3.72E-05
     4 OT DIIS     0.15E+00   17.9     0.00002242     -5927.9374580767 -7.76E-04
     5 OT DIIS     0.15E+00   17.9     0.00001493     -5927.9377470761 -2.89E-04
     6 OT DIIS     0.15E+00   17.9     0.00001890     -5927.9378433810 -9.63E-05
     7 OT DIIS     0.15E+00   17.9     0.00000763     -5927.9379914206 -1.48E-04
     8 OT DIIS     0.15E+00   17.9     0.00000813     -5927.9380654076 -7.40E-05
     9 OT DIIS     0.15E+00   18.0     0.00000889     -5927.9380996896 -3.43E-05
    10 OT DIIS     0.15E+00   18.0     0.00000437     -5927.9381397518 -4.01E-05
    11 OT DIIS     0.15E+00   18.0     0.00000394     -5927.9381599584 -2.02E-05
    12 OT DIIS     0.15E+00   18.0     0.00000443     -5927.9381756958 -1.57E-05
    13 OT DIIS     0.15E+00   18.0     0.00000322     -5927.9381850539 -9.36E-06
    14 OT DIIS     0.15E+00   18.0     0.00000323     -5927.9381930404 -7.99E-06
    15 OT DIIS     0.15E+00   18.0     0.00000226     -5927.9381996625 -6.62E-06
    16 OT DIIS     0.15E+00   18.0     0.00000188     -5927.9382058288 -6.17E-06
    17 OT DIIS     0.15E+00   18.0     0.00000205     -5927.9382096759 -3.85E-06
    18 OT DIIS     0.15E+00   17.9     0.00000142     -5927.9382135012 -3.83E-06
    19 OT DIIS     0.15E+00   17.9     0.00000165     -5927.9382162387 -2.74E-06
    20 OT DIIS     0.15E+00   17.9     0.00000129     -5927.9382178112 -1.57E-06
    21 OT DIIS     0.15E+00   17.8     0.00000105     -5927.9382197754 -1.96E-06
    22 OT DIIS     0.15E+00   18.0     0.00000125     -5927.9382206929 -9.17E-07
    23 OT DIIS     0.15E+00   18.0     0.00000094     -5927.9382216711 -9.78E-07

  *** SCF run converged in    23 steps ***


  Electronic density on regular grids:      -3474.0000000002       -0.0000000002
  Core density on regular grids:             3473.9999999952       -0.0000000048
  Total charge density on r-space grids:       -0.0000000050
  Total charge density g-space grids:          -0.0000000040

  Overlap energy of the core charge distribution:               0.00000032796450
  Self energy of the core charge distribution:             -13965.50565932552126
  Core Hamiltonian energy:                                   3144.21981995632996
  Hartree energy:                                            6203.33125939963156
  Exchange-correlation energy:                              -1307.51230087918452
  Dispersion energy:                                           -2.47134115035056

  Total energy:                                             -5927.93822167113012

  outer SCF iter =    1 RMS gradient =   0.94E-06 energy =      -5927.9382216711
  outer SCF loop converged in   1 iterations or   23 steps


 ENERGY| Total FORCE_EVAL ( QS ) energy (a.u.):            -5927.938222361265616


 --------  Informations at step =     2 ------------
  Optimization Method        =                 BFGS
  Total Energy               =     -5927.9382223613
  Real energy change         =        -0.0057790314
  Predicted change in energy =        -0.0084464000
  Scaling factor             =         0.0000000000
  Step size                  =         0.4196925301
  Trust radius               =         0.4724315332
  Decrease in energy         =                  YES
  Used time                  =              462.247

  Convergence check :
  Max. step size             =         0.4196925301
  Conv. limit for step size  =         0.0030000000
  Convergence in step size   =                   NO
  RMS step size              =         0.0172785856
  Conv. limit for RMS step   =         0.0015000000
  Convergence in RMS step    =                   NO
  Max. gradient              =         0.0053364881
  Conv. limit for gradients  =         0.0004500000
  Conv. for gradients        =                   NO
  RMS gradient               =         0.0004391201
  Conv. limit for RMS grad.  =         0.0003000000
  Conv. for gradients        =                   NO
 ---------------------------------------------------

 --------------------------
 OPTIMIZATION STEP:      3
 --------------------------

 Number of electrons:                                                       3474
 Number of occupied orbitals:                                               1737
 Number of molecular orbitals:                                              1737

 Number of orbital functions:                                               7524
 Number of independent orbital functions:                                   7524

 Extrapolation method: ASPC


 SCF WAVEFUNCTION OPTIMIZATION

  ----------------------------------- OT ---------------------------------------
  Minimizer      : DIIS                : direct inversion
                                         in the iterative subspace
                                         using   8 DIIS vectors
                                         safer DIIS on
  Preconditioner : FULL_KINETIC        : inversion of T + eS
  Precond_solver : DEFAULT
  stepsize       :    0.15000000                  energy_gap     :    0.00010000
  eps_taylor     :   0.10000E-15                  max_taylor     :             4
  ----------------------------------- OT ---------------------------------------

  Step     Update method      Time    Convergence         Total energy    Change
  ------------------------------------------------------------------------------
     1 OT DIIS     0.15E+00   17.5     0.00007247     -5927.9234367939 -5.93E+03
     2 OT DIIS     0.15E+00   17.9     0.00005073     -5927.9311319968 -7.70E-03
     3 OT DIIS     0.15E+00   17.9     0.00011603     -5927.9326011074 -1.47E-03
     4 OT DIIS     0.15E+00   17.9     0.00006187     -5927.9354009588 -2.80E-03
     5 OT DIIS     0.15E+00   17.9     0.00003046     -5927.9371699095 -1.77E-03
     6 OT DIIS     0.15E+00   17.9     0.00004578     -5927.9377724841 -6.03E-04
     7 OT DIIS     0.15E+00   17.9     0.00001907     -5927.9385065212 -7.34E-04
     8 OT DIIS     0.15E+00   17.9     0.00001576     -5927.9389748136 -4.68E-04
     9 OT DIIS     0.15E+00   18.0     0.00002188     -5927.9392159693 -2.41E-04
    10 OT DIIS     0.15E+00   18.0     0.00001242     -5927.9393865432 -1.71E-04
    11 OT DIIS     0.15E+00   17.9     0.00000874     -5927.9395158509 -1.29E-04
    12 OT DIIS     0.15E+00   17.9     0.00000897     -5927.9396189386 -1.03E-04
    13 OT DIIS     0.15E+00   18.0     0.00000886     -5927.9396592881 -4.03E-05
    14 OT DIIS     0.15E+00   18.0     0.00000678     -5927.9397081217 -4.88E-05
    15 OT DIIS     0.15E+00   17.9     0.00000622     -5927.9397398142 -3.17E-05
    16 OT DIIS     0.15E+00   17.9     0.00000409     -5927.9397704521 -3.06E-05
    17 OT DIIS     0.15E+00   17.9     0.00000485     -5927.9397907568 -2.03E-05
    18 OT DIIS     0.15E+00   17.9     0.00000326     -5927.9398072768 -1.65E-05
    19 OT DIIS     0.15E+00   17.9     0.00000324     -5927.9398202645 -1.30E-05
    20 OT DIIS     0.15E+00   17.9     0.00000336     -5927.9398260393 -5.77E-06
    21 OT DIIS     0.15E+00   17.8     0.00000224     -5927.9398337830 -7.74E-06
    22 OT DIIS     0.15E+00   17.9     0.00000247     -5927.9398384349 -4.65E-06
    23 OT DIIS     0.15E+00   17.9     0.00000215     -5927.9398413451 -2.91E-06
    24 OT DIIS     0.15E+00   17.9     0.00000183     -5927.9398443506 -3.01E-06
    25 OT DIIS     0.15E+00   17.9     0.00000161     -5927.9398462750 -1.92E-06
    26 OT DIIS     0.15E+00   17.9     0.00000126     -5927.9398481722 -1.90E-06
    27 OT DIIS     0.15E+00   17.9     0.00000123     -5927.9398497203 -1.55E-06
    28 OT DIIS     0.15E+00   17.9     0.00000117     -5927.9398507433 -1.02E-06
    29 OT DIIS     0.15E+00   17.9     0.00000103     -5927.9398516860 -9.43E-07
    30 OT DIIS     0.15E+00   17.9     0.00000099     -5927.9398523960 -7.10E-07

  *** SCF run converged in    30 steps ***


  Electronic density on regular grids:      -3474.0000000013       -0.0000000013
  Core density on regular grids:             3473.9999999952       -0.0000000048
  Total charge density on r-space grids:       -0.0000000061
  Total charge density g-space grids:          -0.0000000052

  Overlap energy of the core charge distribution:               0.00000032792375
  Self energy of the core charge distribution:             -13965.50565932552126
  Core Hamiltonian energy:                                   3144.21817819602484
  Hartree energy:                                            6203.33150048858261
  Exchange-correlation energy:                              -1307.51257621019795
  Dispersion energy:                                           -2.47129587279591

  Total energy:                                             -5927.93985239598442

  outer SCF iter =    1 RMS gradient =   0.99E-06 energy =      -5927.9398523960
  outer SCF loop converged in   1 iterations or   30 steps


 ENERGY| Total FORCE_EVAL ( QS ) energy (a.u.):            -5927.939853114731704


 --------  Informations at step =     3 ------------
  Optimization Method        =                 BFGS
  Total Energy               =     -5927.9398531147
  Real energy change         =        -0.0016307535
  Predicted change in energy =        -0.0010810574
  Scaling factor             =         0.0000000000
  Step size                  =         0.0405452848
  Trust radius               =         0.4724315332
  Decrease in energy         =                  YES
  Used time                  =              588.935

  Convergence check :
  Max. step size             =         0.0405452848
  Conv. limit for step size  =         0.0030000000
  Convergence in step size   =                   NO
  RMS step size              =         0.0030177612
  Conv. limit for RMS step   =         0.0015000000
  Convergence in RMS step    =                   NO
  Max. gradient              =         0.0031244770
  Conv. limit for gradients  =         0.0004500000
  Conv. for gradients        =                   NO
  RMS gradient               =         0.0002524441
  Conv. limit for RMS grad.  =         0.0003000000
  Conv. in RMS gradients     =                  YES
 ---------------------------------------------------

 --------------------------
 OPTIMIZATION STEP:      4
 --------------------------

 Number of electrons:                                                       3474
 Number of occupied orbitals:                                               1737
 Number of molecular orbitals:                                              1737

 Number of orbital functions:                                               7524
 Number of independent orbital functions:                                   7524

 Extrapolation method: ASPC


 SCF WAVEFUNCTION OPTIMIZATION

  ----------------------------------- OT ---------------------------------------
  Minimizer      : DIIS                : direct inversion
                                         in the iterative subspace
                                         using   8 DIIS vectors
                                         safer DIIS on
  Preconditioner : FULL_KINETIC        : inversion of T + eS
  Precond_solver : DEFAULT
  stepsize       :    0.15000000                  energy_gap     :    0.00010000
  eps_taylor     :   0.10000E-15                  max_taylor     :             4
  ----------------------------------- OT ---------------------------------------

  Step     Update method      Time    Convergence         Total energy    Change
  ------------------------------------------------------------------------------
     1 OT DIIS     0.15E+00   17.5     0.00005547     -5927.9313798692 -5.93E+03
     2 OT DIIS     0.15E+00   17.8     0.00004286     -5927.9358621554 -4.48E-03
     3 OT DIIS     0.15E+00   17.8     0.00010649     -5927.9360778699 -2.16E-04
     4 OT DIIS     0.15E+00   17.8     0.00004188     -5927.9385096873 -2.43E-03
     5 OT DIIS     0.15E+00   17.9     0.00003019     -5927.9395100072 -1.00E-03
     6 OT DIIS     0.15E+00   17.8     0.00003369     -5927.9398622767 -3.52E-04
     7 OT DIIS     0.15E+00   17.8     0.00001395     -5927.9404117856 -5.50E-04
     8 OT DIIS     0.15E+00   17.8     0.00001533     -5927.9406996092 -2.88E-04
     9 OT DIIS     0.15E+00   17.9     0.00001728     -5927.9408330331 -1.33E-04
    10 OT DIIS     0.15E+00   17.9     0.00000895     -5927.9409678275 -1.35E-04
    11 OT DIIS     0.15E+00   17.9     0.00000753     -5927.9410473401 -7.95E-05
    12 OT DIIS     0.15E+00   17.9     0.00000846     -5927.9411015575 -5.42E-05
    13 OT DIIS     0.15E+00   17.9     0.00000592     -5927.9411347021 -3.31E-05
    14 OT DIIS     0.15E+00   17.9     0.00000620     -5927.9411604637 -2.58E-05
    15 OT DIIS     0.15E+00   17.9     0.00000418     -5927.9411808652 -2.04E-05
    16 OT DIIS     0.15E+00   17.9     0.00000343     -5927.9411990449 -1.82E-05
    17 OT DIIS     0.15E+00   17.9     0.00000368     -5927.9412095511 -1.05E-05
    18 OT DIIS     0.15E+00   17.9     0.00000234     -5927.9412199932 -1.04E-05
    19 OT DIIS     0.15E+00   17.8     0.00000278     -5927.9412265252 -6.53E-06
    20 OT DIIS     0.15E+00   17.9     0.00000236     -5927.9412297818 -3.26E-06
    21 OT DIIS     0.15E+00   17.7     0.00000172     -5927.9412338454 -4.06E-06
    22 OT DIIS     0.15E+00   17.9     0.00000197     -5927.9412359220 -2.08E-06
    23 OT DIIS     0.15E+00   17.9     0.00000158     -5927.9412376734 -1.75E-06
    24 OT DIIS     0.15E+00   17.8     0.00000143     -5927.9412390383 -1.36E-06
    25 OT DIIS     0.15E+00   17.9     0.00000114     -5927.9412400792 -1.04E-06
    26 OT DIIS     0.15E+00   17.8     0.00000090     -5927.9412410004 -9.21E-07

  *** SCF run converged in    26 steps ***


  Electronic density on regular grids:      -3474.0000000009       -0.0000000009
  Core density on regular grids:             3473.9999999952       -0.0000000048
  Total charge density on r-space grids:       -0.0000000057
  Total charge density g-space grids:          -0.0000000048

  Overlap energy of the core charge distribution:               0.00000032776370
  Self energy of the core charge distribution:             -13965.50565932552126
  Core Hamiltonian energy:                                   3144.21447333652395
  Hartree energy:                                            6203.33325771075215
  Exchange-correlation energy:                              -1307.51205686068033
  Dispersion energy:                                           -2.47125618926001

  Total energy:                                             -5927.94124100042154

  outer SCF iter =    1 RMS gradient =   0.90E-06 energy =      -5927.9412410004
  outer SCF loop converged in   1 iterations or   26 steps


 ENERGY| Total FORCE_EVAL ( QS ) energy (a.u.):            -5927.941241659874322


 --------  Informations at step =     4 ------------
  Optimization Method        =                 BFGS
  Total Energy               =     -5927.9412416599
  Real energy change         =        -0.0013885451
  Predicted change in energy =        -0.0010135147
  Scaling factor             =         0.0000000000
  Step size                  =         0.0647840182
  Trust radius               =         0.4724315332
  Decrease in energy         =                  YES
  Used time                  =              516.682

  Convergence check :
  Max. step size             =         0.0647840182
  Conv. limit for step size  =         0.0030000000
  Convergence in step size   =                   NO
  RMS step size              =         0.0051476173
  Conv. limit for RMS step   =         0.0015000000
  Convergence in RMS step    =                   NO
  Max. gradient              =         0.0034481530
  Conv. limit for gradients  =         0.0004500000
  Conv. for gradients        =                   NO
  RMS gradient               =         0.0002088252
  Conv. limit for RMS grad.  =         0.0003000000
  Conv. in RMS gradients     =                  YES
 ---------------------------------------------------

 --------------------------
 OPTIMIZATION STEP:      5
 --------------------------

 Number of electrons:                                                       3474
 Number of occupied orbitals:                                               1737
 Number of molecular orbitals:                                              1737

 Number of orbital functions:                                               7524
 Number of independent orbital functions:                                   7524

 Extrapolation method: ASPC


 SCF WAVEFUNCTION OPTIMIZATION

  ----------------------------------- OT ---------------------------------------
  Minimizer      : DIIS                : direct inversion
                                         in the iterative subspace
                                         using   8 DIIS vectors
                                         safer DIIS on
  Preconditioner : FULL_KINETIC        : inversion of T + eS
  Precond_solver : DEFAULT
  stepsize       :    0.15000000                  energy_gap     :    0.00010000
  eps_taylor     :   0.10000E-15                  max_taylor     :             4
  ----------------------------------- OT ---------------------------------------

  Step     Update method      Time    Convergence         Total energy    Change
  ------------------------------------------------------------------------------
     1 OT DIIS     0.15E+00   17.5     0.00002537     -5927.9394135781 -5.93E+03
     2 OT DIIS     0.15E+00   17.9     0.00003033     -5927.9402891871 -8.76E-04
     3 OT DIIS     0.15E+00   17.9     0.00003966     -5927.9403875569 -9.84E-05
     4 OT DIIS     0.15E+00   17.9     0.00002029     -5927.9410239839 -6.36E-04
     5 OT DIIS     0.15E+00   17.9     0.00002188     -5927.9412473827 -2.23E-04
     6 OT DIIS     0.15E+00   17.9     0.00001243     -5927.9414179485 -1.71E-04
     7 OT DIIS     0.15E+00   17.9     0.00000715     -5927.9416223843 -2.04E-04
     8 OT DIIS     0.15E+00   17.9     0.00000959     -5927.9417179448 -9.56E-05
     9 OT DIIS     0.15E+00   18.0     0.00000856     -5927.9417708450 -5.29E-05
    10 OT DIIS     0.15E+00   18.0     0.00000559     -5927.9418121460 -4.13E-05
    11 OT DIIS     0.15E+00   18.0     0.00000536     -5927.9418364822 -2.43E-05
    12 OT DIIS     0.15E+00   17.9     0.00000474     -5927.9418525243 -1.60E-05
    13 OT DIIS     0.15E+00   17.9     0.00000365     -5927.9418673500 -1.48E-05
    14 OT DIIS     0.15E+00   18.0     0.00000340     -5927.9418746001 -7.25E-06
    15 OT DIIS     0.15E+00   17.9     0.00000265     -5927.9418827644 -8.16E-06
    16 OT DIIS     0.15E+00   17.9     0.00000232     -5927.9418880233 -5.26E-06
    17 OT DIIS     0.15E+00   17.9     0.00000161     -5927.9418927617 -4.74E-06
    18 OT DIIS     0.15E+00   17.9     0.00000127     -5927.9418969180 -4.16E-06
    19 OT DIIS     0.15E+00   17.9     0.00000131     -5927.9418994102 -2.49E-06
    20 OT DIIS     0.15E+00   17.9     0.00000146     -5927.9419006016 -1.19E-06
    21 OT DIIS     0.15E+00   17.8     0.00000133     -5927.9419016671 -1.07E-06
    22 OT DIIS     0.15E+00   17.9     0.00000105     -5927.9419026379 -9.71E-07
    23 OT DIIS     0.15E+00   18.0     0.00000109     -5927.9419032119 -5.74E-07
    24 OT DIIS     0.15E+00   17.9     0.00000080     -5927.9419038663 -6.54E-07

  *** SCF run converged in    24 steps ***


  Electronic density on regular grids:      -3474.0000000005       -0.0000000005
  Core density on regular grids:             3473.9999999952       -0.0000000048
  Total charge density on r-space grids:       -0.0000000053
  Total charge density g-space grids:          -0.0000000043

  Overlap energy of the core charge distribution:               0.00000032747597
  Self energy of the core charge distribution:             -13965.50565932552126
  Core Hamiltonian energy:                                   3144.19293592713620
  Hartree energy:                                            6203.34700479990715
  Exchange-correlation energy:                              -1307.50513506043308
  Dispersion energy:                                           -2.47105053482624

  Total energy:                                             -5927.94190386626178

  outer SCF iter =    1 RMS gradient =   0.80E-06 energy =      -5927.9419038663
  outer SCF loop converged in   1 iterations or   24 steps


 ENERGY| Total FORCE_EVAL ( QS ) energy (a.u.):            -5927.941904289597915


 --------  Informations at step =     5 ------------
  Optimization Method        =                 BFGS
  Total Energy               =     -5927.9419042896
  Real energy change         =        -0.0006626297
  Predicted change in energy =        -0.0017421737
  Scaling factor             =         0.0000000000
  Step size                  =         0.2877540236
  Trust radius               =         0.4724315332
  Decrease in energy         =                  YES
  Used time                  =              480.204

  Convergence check :
  Max. step size             =         0.2877540236
  Conv. limit for step size  =         0.0030000000
  Convergence in step size   =                   NO
  RMS step size              =         0.0139188939
  Conv. limit for RMS step   =         0.0015000000
  Convergence in RMS step    =                   NO
  Max. gradient              =         0.0054315657
  Conv. limit for gradients  =         0.0004500000
  Conv. for gradients        =                   NO
  RMS gradient               =         0.0003901285
  Conv. limit for RMS grad.  =         0.0003000000
  Conv. for gradients        =                   NO
 ---------------------------------------------------

 --------------------------
 OPTIMIZATION STEP:      6
 --------------------------

 Number of electrons:                                                       3474
 Number of occupied orbitals:                                               1737
 Number of molecular orbitals:                                              1737

 Number of orbital functions:                                               7524
 Number of independent orbital functions:                                   7524

 Extrapolation method: ASPC


 SCF WAVEFUNCTION OPTIMIZATION

  ----------------------------------- OT ---------------------------------------
  Minimizer      : DIIS                : direct inversion
                                         in the iterative subspace
                                         using   8 DIIS vectors
                                         safer DIIS on
  Preconditioner : FULL_KINETIC        : inversion of T + eS
  Precond_solver : DEFAULT
  stepsize       :    0.15000000                  energy_gap     :    0.00010000
  eps_taylor     :   0.10000E-15                  max_taylor     :             4
  ----------------------------------- OT ---------------------------------------

  Step     Update method      Time    Convergence         Total energy    Change
  ------------------------------------------------------------------------------
     1 OT DIIS     0.15E+00   17.6     0.00007573     -5927.9196542441 -5.93E+03
     2 OT DIIS     0.15E+00   17.9     0.00005852     -5927.9286488601 -8.99E-03
     3 OT DIIS     0.15E+00   17.9     0.00014223     -5927.9306265692 -1.98E-03
     4 OT DIIS     0.15E+00   17.9     0.00004991     -5927.9362335805 -5.61E-03
     5 OT DIIS     0.15E+00   17.9     0.00005531     -5927.9384665587 -2.23E-03
     6 OT DIIS     0.15E+00   18.0     0.00004934     -5927.9396166989 -1.15E-03
     7 OT DIIS     0.15E+00   17.9     0.00001967     -5927.9409825864 -1.37E-03
     8 OT DIIS     0.15E+00   17.9     0.00002039     -5927.9417101547 -7.28E-04
     9 OT DIIS     0.15E+00   17.9     0.00002336     -5927.9419843203 -2.74E-04
    10 OT DIIS     0.15E+00   18.0     0.00001400     -5927.9422093871 -2.25E-04
    11 OT DIIS     0.15E+00   18.0     0.00001265     -5927.9423722028 -1.63E-04
    12 OT DIIS     0.15E+00   18.0     0.00001138     -5927.9424615064 -8.93E-05
    13 OT DIIS     0.15E+00   18.0     0.00000941     -5927.9425507294 -8.92E-05
    14 OT DIIS     0.15E+00   18.0     0.00000850     -5927.9426054122 -5.47E-05
    15 OT DIIS     0.15E+00   18.0     0.00000668     -5927.9426592423 -5.38E-05
    16 OT DIIS     0.15E+00   18.0     0.00000659     -5927.9426951034 -3.59E-05
    17 OT DIIS     0.15E+00   18.0     0.00000435     -5927.9427318196 -3.67E-05
    18 OT DIIS     0.15E+00   18.0     0.00000363     -5927.9427632801 -3.15E-05
    19 OT DIIS     0.15E+00   18.0     0.00000458     -5927.9427855990 -2.23E-05
    20 OT DIIS     0.15E+00   18.0     0.00000398     -5927.9427937976 -8.20E-06
    21 OT DIIS     0.15E+00   17.8     0.00000332     -5927.9428059394 -1.21E-05
    22 OT DIIS     0.15E+00   18.0     0.00000322     -5927.9428122462 -6.31E-06
    23 OT DIIS     0.15E+00   18.0     0.00000266     -5927.9428178052 -5.56E-06
    24 OT DIIS     0.15E+00   18.0     0.00000246     -5927.9428219113 -4.11E-06
    25 OT DIIS     0.15E+00   18.0     0.00000200     -5927.9428255415 -3.63E-06
    26 OT DIIS     0.15E+00   18.0     0.00000182     -5927.9428281010 -2.56E-06
    27 OT DIIS     0.15E+00   17.9     0.00000138     -5927.9428305985 -2.50E-06
    28 OT DIIS     0.15E+00   18.0     0.00000127     -5927.9428327260 -2.13E-06
    29 OT DIIS     0.15E+00   17.9     0.00000146     -5927.9428339063 -1.18E-06
    30 OT DIIS     0.15E+00   17.9     0.00000118     -5927.9428350488 -1.14E-06

  Leaving inner SCF loop after reaching    30 steps.


  Electronic density on regular grids:      -3474.0000000060       -0.0000000060
  Core density on regular grids:             3473.9999999952       -0.0000000048
  Total charge density on r-space grids:       -0.0000000109
  Total charge density g-space grids:          -0.0000000098

  Overlap energy of the core charge distribution:               0.00000032755757
  Self energy of the core charge distribution:             -13965.50565932552126
  Core Hamiltonian energy:                                   3144.20648795213401
  Hartree energy:                                            6203.33749807397817
  Exchange-correlation energy:                              -1307.51002689189704
  Dispersion energy:                                           -2.47113518510030

  Total energy:                                             -5927.94283504884788

  outer SCF iter =    1 RMS gradient =   0.12E-05 energy =      -5927.9428350488

  ----------------------------------- OT ---------------------------------------
  Minimizer      : DIIS                : direct inversion
                                         in the iterative subspace
                                         using   8 DIIS vectors
                                         safer DIIS on
  Preconditioner : FULL_KINETIC        : inversion of T + eS
  Precond_solver : DEFAULT
  stepsize       :    0.15000000                  energy_gap     :    0.00010000
  eps_taylor     :   0.10000E-15                  max_taylor     :             4
  ----------------------------------- OT ---------------------------------------

  Step     Update method      Time    Convergence         Total energy    Change
  ------------------------------------------------------------------------------
     1 OT DIIS     0.15E+00   40.3     0.00000119     -5927.9428360341 -9.85E-07
     2 OT DIIS     0.15E+00   17.7     0.00000498     -5927.9428334613  2.57E-06
     3 OT DIIS     0.15E+00   17.6     0.00000077     -5927.9428372844 -3.82E-06

  *** SCF run converged in     3 steps ***


  Electronic density on regular grids:      -3474.0000000013       -0.0000000013
  Core density on regular grids:             3473.9999999952       -0.0000000048
  Total charge density on r-space grids:       -0.0000000061
  Total charge density g-space grids:          -0.0000000051

  Overlap energy of the core charge distribution:               0.00000032755757
  Self energy of the core charge distribution:             -13965.50565932552126
  Core Hamiltonian energy:                                   3144.20639943450078
  Hartree energy:                                            6203.33757060058178
  Exchange-correlation energy:                              -1307.51001313642450
  Dispersion energy:                                           -2.47113518510030

  Total energy:                                             -5927.94283728440405

  outer SCF iter =    2 RMS gradient =   0.77E-06 energy =      -5927.9428372844
  outer SCF loop converged in   2 iterations or   33 steps


 ENERGY| Total FORCE_EVAL ( QS ) energy (a.u.):            -5927.942837641835467


 --------  Informations at step =     6 ------------
  Optimization Method        =                 BFGS
  Total Energy               =     -5927.9428376418
  Real energy change         =        -0.0009333522
  Predicted change in energy =        -0.0006912308
  Scaling factor             =         0.0000000000
  Step size                  =         0.0546289452
  Trust radius               =         0.4724315332
  Decrease in energy         =                  YES
  Used time                  =              646.683

  Convergence check :
  Max. step size             =         0.0546289452
  Conv. limit for step size  =         0.0030000000
  Convergence in step size   =                   NO
  RMS step size              =         0.0032758286
  Conv. limit for RMS step   =         0.0015000000
  Convergence in RMS step    =                   NO
  Max. gradient              =         0.0031429674
  Conv. limit for gradients  =         0.0004500000
  Conv. for gradients        =                   NO
  RMS gradient               =         0.0002279102
  Conv. limit for RMS grad.  =         0.0003000000
  Conv. in RMS gradients     =                  YES
 ---------------------------------------------------

 --------------------------
 OPTIMIZATION STEP:      7
 --------------------------

 Number of electrons:                                                       3474
 Number of occupied orbitals:                                               1737
 Number of molecular orbitals:                                              1737

 Number of orbital functions:                                               7524
 Number of independent orbital functions:                                   7524

 Extrapolation method: ASPC


 SCF WAVEFUNCTION OPTIMIZATION

  ----------------------------------- OT ---------------------------------------
  Minimizer      : DIIS                : direct inversion
                                         in the iterative subspace
                                         using   8 DIIS vectors
                                         safer DIIS on
  Preconditioner : FULL_KINETIC        : inversion of T + eS
  Precond_solver : DEFAULT
  stepsize       :    0.15000000                  energy_gap     :    0.00010000
  eps_taylor     :   0.10000E-15                  max_taylor     :             4
  ----------------------------------- OT ---------------------------------------

  Step     Update method      Time    Convergence         Total energy    Change
  ------------------------------------------------------------------------------
     1 OT DIIS     0.15E+00   17.5     0.00007690     -5927.9199451402 -5.93E+03
     2 OT DIIS     0.15E+00   17.9     0.00005725     -5927.9292119714 -9.27E-03
     3 OT DIIS     0.15E+00   17.9     0.00012523     -5927.9322832572 -3.07E-03
     4 OT DIIS     0.15E+00   17.9     0.00005455     -5927.9368219318 -4.54E-03
     5 OT DIIS     0.15E+00   17.9     0.00003999     -5927.9394202040 -2.60E-03
     6 OT DIIS     0.15E+00   17.9     0.00005905     -5927.9406314615 -1.21E-03
     7 OT DIIS     0.15E+00   17.9     0.00002236     -5927.9417573223 -1.13E-03
     8 OT DIIS     0.15E+00   17.9     0.00001731     -5927.9425568260 -8.00E-04
     9 OT DIIS     0.15E+00   17.9     0.00002132     -5927.9428708966 -3.14E-04
    10 OT DIIS     0.15E+00   17.9     0.00001476     -5927.9430653178 -1.94E-04
    11 OT DIIS     0.15E+00   17.9     0.00001117     -5927.9432254253 -1.60E-04
    12 OT DIIS     0.15E+00   17.9     0.00001278     -5927.9433071442 -8.17E-05
    13 OT DIIS     0.15E+00   17.9     0.00000859     -5927.9433892338 -8.21E-05
    14 OT DIIS     0.15E+00   17.9     0.00000827     -5927.9434446422 -5.54E-05
    15 OT DIIS     0.15E+00   17.9     0.00000635     -5927.9434922868 -4.76E-05
    16 OT DIIS     0.15E+00   17.9     0.00000643     -5927.9435272573 -3.50E-05
    17 OT DIIS     0.15E+00   17.9     0.00000480     -5927.9435546900 -2.74E-05
    18 OT DIIS     0.15E+00   17.9     0.00000343     -5927.9435824593 -2.78E-05
    19 OT DIIS     0.15E+00   17.9     0.00000315     -5927.9436051265 -2.27E-05
    20 OT DIIS     0.15E+00   17.9     0.00000411     -5927.9436133659 -8.24E-06
    21 OT DIIS     0.15E+00   17.8     0.00000328     -5927.9436224801 -9.11E-06
    22 OT DIIS     0.15E+00   17.9     0.00000299     -5927.9436283568 -5.88E-06
    23 OT DIIS     0.15E+00   17.9     0.00000240     -5927.9436325186 -4.16E-06
    24 OT DIIS     0.15E+00   17.9     0.00000214     -5927.9436363454 -3.83E-06
    25 OT DIIS     0.15E+00   17.9     0.00000204     -5927.9436387180 -2.37E-06
    26 OT DIIS     0.15E+00   17.9     0.00000161     -5927.9436409364 -2.22E-06
    27 OT DIIS     0.15E+00   17.9     0.00000153     -5927.9436427223 -1.79E-06
    28 OT DIIS     0.15E+00   17.9     0.00000122     -5927.9436442210 -1.50E-06
    29 OT DIIS     0.15E+00   17.9     0.00000103     -5927.9436454526 -1.23E-06
    30 OT DIIS     0.15E+00   17.9     0.00000127     -5927.9436462934 -8.41E-07

  Leaving inner SCF loop after reaching    30 steps.


  Electronic density on regular grids:      -3474.0000000072       -0.0000000072
  Core density on regular grids:             3473.9999999952       -0.0000000048
  Total charge density on r-space grids:       -0.0000000120
  Total charge density g-space grids:          -0.0000000109

  Overlap energy of the core charge distribution:               0.00000032757784
  Self energy of the core charge distribution:             -13965.50565932552126
  Core Hamiltonian energy:                                   3144.22265678768645
  Hartree energy:                                            6203.32655896182678
  Exchange-correlation energy:                              -1307.51605963386010
  Dispersion energy:                                           -2.47114341106219

  Total energy:                                             -5927.94364629335178

  outer SCF iter =    1 RMS gradient =   0.13E-05 energy =      -5927.9436462934

  ----------------------------------- OT ---------------------------------------
  Minimizer      : DIIS                : direct inversion
                                         in the iterative subspace
                                         using   8 DIIS vectors
                                         safer DIIS on
  Preconditioner : FULL_KINETIC        : inversion of T + eS
  Precond_solver : DEFAULT
  stepsize       :    0.15000000                  energy_gap     :    0.00010000
  eps_taylor     :   0.10000E-15                  max_taylor     :             4
  ----------------------------------- OT ---------------------------------------

  Step     Update method      Time    Convergence         Total energy    Change
  ------------------------------------------------------------------------------
     1 OT DIIS     0.15E+00   40.2     0.00000097     -5927.9436469816 -6.88E-07

  *** SCF run converged in     1 steps ***


  Electronic density on regular grids:      -3474.0000000072       -0.0000000072
  Core density on regular grids:             3473.9999999952       -0.0000000048
  Total charge density on r-space grids:       -0.0000000120
  Total charge density g-space grids:          -0.0000000109

  Overlap energy of the core charge distribution:               0.00000032757784
  Self energy of the core charge distribution:             -13965.50565932552126
  Core Hamiltonian energy:                                   3144.22265629788126
  Hartree energy:                                            6203.32654649135111
  Exchange-correlation energy:                              -1307.51604736187210
  Dispersion energy:                                           -2.47114341106219

  Total energy:                                             -5927.94364698164554

  outer SCF iter =    2 RMS gradient =   0.97E-06 energy =      -5927.9436469816
  outer SCF loop converged in   2 iterations or   31 steps


 ENERGY| Total FORCE_EVAL ( QS ) energy (a.u.):            -5927.943645857700176


 --------  Informations at step =     7 ------------
  Optimization Method        =                 BFGS
  Total Energy               =     -5927.9436458577
  Real energy change         =        -0.0008082159
  Predicted change in energy =        -0.0007316273
  Scaling factor             =         0.0000000000
  Step size                  =         0.0701553376
  Trust radius               =         0.4724315332
  Decrease in energy         =                  YES
  Used time                  =              608.516

  Convergence check :
  Max. step size             =         0.0701553376
  Conv. limit for step size  =         0.0030000000
  Convergence in step size   =                   NO
  RMS step size              =         0.0042529506
  Conv. limit for RMS step   =         0.0015000000
  Convergence in RMS step    =                   NO
  Max. gradient              =         0.0015363162
  Conv. limit for gradients  =         0.0004500000
  Conv. for gradients        =                   NO
  RMS gradient               =         0.0001414604
  Conv. limit for RMS grad.  =         0.0003000000
  Conv. in RMS gradients     =                  YES
 ---------------------------------------------------

 --------------------------
 OPTIMIZATION STEP:      8
 --------------------------

 Number of electrons:                                                       3474
 Number of occupied orbitals:                                               1737
 Number of molecular orbitals:                                              1737

 Number of orbital functions:                                               7524
 Number of independent orbital functions:                                   7524

 Extrapolation method: ASPC


 SCF WAVEFUNCTION OPTIMIZATION

  ----------------------------------- OT ---------------------------------------
  Minimizer      : DIIS                : direct inversion
                                         in the iterative subspace
                                         using   8 DIIS vectors
                                         safer DIIS on
  Preconditioner : FULL_KINETIC        : inversion of T + eS
  Precond_solver : DEFAULT
  stepsize       :    0.15000000                  energy_gap     :    0.00010000
  eps_taylor     :   0.10000E-15                  max_taylor     :             4
  ----------------------------------- OT ---------------------------------------

  Step     Update method      Time    Convergence         Total energy    Change
  ------------------------------------------------------------------------------
     1 OT DIIS     0.15E+00   17.5     0.00003901     -5927.9382215492 -5.93E+03
     2 OT DIIS     0.15E+00   17.9     0.00005922     -5927.9400840746 -1.86E-03
     3 OT DIIS     0.15E+00   17.9     0.00005070     -5927.9405545320 -4.70E-04
     4 OT DIIS     0.15E+00   17.9     0.00003235     -5927.9420651154 -1.51E-03
     5 OT DIIS     0.15E+00   17.9     0.00003372     -5927.9425199338 -4.55E-04
     6 OT DIIS     0.15E+00   18.0     0.00001738     -5927.9430251086 -5.05E-04
     7 OT DIIS     0.15E+00   17.9     0.00001273     -5927.9434125316 -3.87E-04
     8 OT DIIS     0.15E+00   18.0     0.00001865     -5927.9435229904 -1.10E-04
     9 OT DIIS     0.15E+00   17.9     0.00000851     -5927.9436730779 -1.50E-04
    10 OT DIIS     0.15E+00   18.0     0.00000634     -5927.9437616105 -8.85E-05
    11 OT DIIS     0.15E+00   17.9     0.00000845     -5927.9437983351 -3.67E-05
    12 OT DIIS     0.15E+00   18.0     0.00000632     -5927.9438298243 -3.15E-05
    13 OT DIIS     0.15E+00   17.9     0.00000586     -5927.9438503225 -2.05E-05
    14 OT DIIS     0.15E+00   17.9     0.00000415     -5927.9438682461 -1.79E-05
    15 OT DIIS     0.15E+00   17.9     0.00000360     -5927.9438817563 -1.35E-05
    16 OT DIIS     0.15E+00   18.0     0.00000302     -5927.9438916735 -9.92E-06
    17 OT DIIS     0.15E+00   18.0     0.00000222     -5927.9439012556 -9.58E-06
    18 OT DIIS     0.15E+00   18.0     0.00000262     -5927.9439078933 -6.64E-06
    19 OT DIIS     0.15E+00   18.0     0.00000217     -5927.9439119467 -4.05E-06
    20 OT DIIS     0.15E+00   18.0     0.00000162     -5927.9439159356 -3.99E-06
    21 OT DIIS     0.15E+00   17.8     0.00000205     -5927.9439179319 -2.00E-06
    22 OT DIIS     0.15E+00   18.0     0.00000155     -5927.9439196480 -1.72E-06
    23 OT DIIS     0.15E+00   18.0     0.00000153     -5927.9439208540 -1.21E-06
    24 OT DIIS     0.15E+00   18.0     0.00000108     -5927.9439221125 -1.26E-06
    25 OT DIIS     0.15E+00   18.0     0.00000115     -5927.9439229164 -8.04E-07
    26 OT DIIS     0.15E+00   18.0     0.00000075     -5927.9439236761 -7.60E-07

  *** SCF run converged in    26 steps ***


  Electronic density on regular grids:      -3474.0000000023       -0.0000000023
  Core density on regular grids:             3473.9999999952       -0.0000000048
  Total charge density on r-space grids:       -0.0000000070
  Total charge density g-space grids:          -0.0000000060

  Overlap energy of the core charge distribution:               0.00000032752874
  Self energy of the core charge distribution:             -13965.50565932552126
  Core Hamiltonian energy:                                   3144.22363622297053
  Hartree energy:                                            6203.32600673937304
  Exchange-correlation energy:                              -1307.51676574328212
  Dispersion energy:                                           -2.47114189714862

  Total energy:                                             -5927.94392367607907

  outer SCF iter =    1 RMS gradient =   0.75E-06 energy =      -5927.9439236761
  outer SCF loop converged in   1 iterations or   26 steps


 ENERGY| Total FORCE_EVAL ( QS ) energy (a.u.):            -5927.943924245383641


 --------  Informations at step =     8 ------------
  Optimization Method        =                 BFGS
  Total Energy               =     -5927.9439242454
  Real energy change         =        -0.0002783877
  Predicted change in energy =        -0.0001693076
  Scaling factor             =         0.0000000000
  Step size                  =         0.0308897722
  Trust radius               =         0.4724315332
  Decrease in energy         =                  YES
  Used time                  =              517.656

  Convergence check :
  Max. step size             =         0.0308897722
  Conv. limit for step size  =         0.0030000000
  Convergence in step size   =                   NO
  RMS step size              =         0.0021386083
  Conv. limit for RMS step   =         0.0015000000
  Convergence in RMS step    =                   NO
  Max. gradient              =         0.0012020972
  Conv. limit for gradients  =         0.0004500000
  Conv. for gradients        =                   NO
  RMS gradient               =         0.0001167466
  Conv. limit for RMS grad.  =         0.0003000000
  Conv. in RMS gradients     =                  YES
 ---------------------------------------------------

 --------------------------
 OPTIMIZATION STEP:      9
 --------------------------

 Number of electrons:                                                       3474
 Number of occupied orbitals:                                               1737
 Number of molecular orbitals:                                              1737

 Number of orbital functions:                                               7524
 Number of independent orbital functions:                                   7524

 Extrapolation method: ASPC


 SCF WAVEFUNCTION OPTIMIZATION

  ----------------------------------- OT ---------------------------------------
  Minimizer      : DIIS                : direct inversion
                                         in the iterative subspace
                                         using   8 DIIS vectors
                                         safer DIIS on
  Preconditioner : FULL_KINETIC        : inversion of T + eS
  Precond_solver : DEFAULT
  stepsize       :    0.15000000                  energy_gap     :    0.00010000
  eps_taylor     :   0.10000E-15                  max_taylor     :             4
  ----------------------------------- OT ---------------------------------------

  Step     Update method      Time    Convergence         Total energy    Change
  ------------------------------------------------------------------------------
     1 OT DIIS     0.15E+00   17.6     0.00002317     -5927.9427001467 -5.93E+03
     2 OT DIIS     0.15E+00   18.0     0.00006914     -5927.9427023499 -2.20E-06
     3 OT DIIS     0.15E+00   17.9     0.00001732     -5927.9434083349 -7.06E-04
     4 OT DIIS     0.15E+00   18.0     0.00002908     -5927.9437183744 -3.10E-04
     5 OT DIIS     0.15E+00   18.0     0.00001396     -5927.9439726008 -2.54E-04
     6 OT DIIS     0.15E+00   18.0     0.00000928     -5927.9441289570 -1.56E-04
     7 OT DIIS     0.15E+00   18.0     0.00000942     -5927.9442498927 -1.21E-04
     8 OT DIIS     0.15E+00   18.0     0.00000920     -5927.9442896437 -3.98E-05
     9 OT DIIS     0.15E+00   18.0     0.00000487     -5927.9443405887 -5.09E-05
    10 OT DIIS     0.15E+00   18.0     0.00000455     -5927.9443664107 -2.58E-05
[...]
 flops     6 x    32 x     6           9813436416       0.0%    100.0%      0.0%
 flops    13 x    32 x    32          40577531904       0.0%    100.0%      0.0%
 flops    13 x     6 x   416          79527776640       0.0%    100.0%      0.0%
 flops     6 x    13 x   416          80082702336       0.0%    100.0%      0.0%
 flops    13 x     6 x   425          81248329500       0.0%    100.0%      0.0%
 flops     6 x    13 x   425          81815260800       0.0%    100.0%      0.0%
 flops    13 x     6 x   448         171290595840       0.0%    100.0%      0.0%
 flops     6 x    13 x   448         172485820416       0.0%    100.0%      0.0%
 flops   416 x   416 x   416         819116965888     100.0%      0.0%      0.0%
 flops   416 x   416 x   425         836838246400     100.0%      0.0%      0.0%
 flops   416 x   425 x   416         836838246400     100.0%      0.0%      0.0%
 flops   425 x   416 x   416         836838246400     100.0%      0.0%      0.0%
 flops   416 x   425 x   425         854942920000     100.0%      0.0%      0.0%
 flops   425 x   416 x   425         854942920000     100.0%      0.0%      0.0%
 flops   425 x   425 x   416         854942920000     100.0%      0.0%      0.0%
 flops   425 x   425 x   425         873439281250     100.0%      0.0%      0.0%
 flops    13 x     9 x    13        1270245421224       0.0%    100.0%      0.0%
 flops     6 x    32 x    13        1408962387456       0.0%    100.0%      0.0%
 flops    13 x    32 x     6        1408962387456       0.0%    100.0%      0.0%
 flops   416 x   416 x   448        1764251926528     100.0%      0.0%      0.0%
 flops   416 x   448 x   416        1764251926528     100.0%      0.0%      0.0%
 flops   448 x   416 x   416        1764251926528     100.0%      0.0%      0.0%
 flops   416 x   425 x   448        1802420838400     100.0%      0.0%      0.0%
 flops   416 x   448 x   425        1802420838400     100.0%      0.0%      0.0%
 flops   425 x   416 x   448        1802420838400     100.0%      0.0%      0.0%
 flops   425 x   448 x   416        1802420838400     100.0%      0.0%      0.0%
 flops   448 x   416 x   425        1802420838400     100.0%      0.0%      0.0%
 flops   448 x   425 x   416        1802420838400     100.0%      0.0%      0.0%
 flops   425 x   425 x   448        1841415520000     100.0%      0.0%      0.0%
 flops   425 x   448 x   425        1841415520000     100.0%      0.0%      0.0%
 flops   448 x   425 x   425        1841415520000     100.0%      0.0%      0.0%
 flops   448 x   448 x   416        3799927226368     100.0%      0.0%      0.0%
 flops   416 x   448 x   448        3799927226368     100.0%      0.0%      0.0%
 flops   448 x   416 x   448        3799927226368     100.0%      0.0%      0.0%
 flops   448 x   448 x   425        3882137190400     100.0%      0.0%      0.0%
 flops   425 x   448 x   448        3882137190400     100.0%      0.0%      0.0%
 flops   448 x   425 x   448        3882137190400     100.0%      0.0%      0.0%
 flops   416 x   416 x  1878        4865887543296     100.0%      0.0%      0.0%
 flops   416 x   416 x  1884        4881433509888     100.0%      0.0%      0.0%
 flops   416 x   425 x  1878        4971159148800     100.0%      0.0%      0.0%
 flops   425 x   416 x  1878        4971159148800     100.0%      0.0%      0.0%
 flops   416 x   425 x  1884        4987041446400     100.0%      0.0%      0.0%
 flops   425 x   416 x  1884        4987041446400     100.0%      0.0%      0.0%
 flops   425 x   425 x  1878        5078708265000     100.0%      0.0%      0.0%
 flops   425 x   425 x  1884        5094934170000     100.0%      0.0%      0.0%
 flops  1878 x   416 x   416        6034584551424     100.0%      0.0%      0.0%
 flops  1884 x   416 x   416        6053864374272     100.0%      0.0%      0.0%
 flops  1878 x   416 x   425        6165140467200     100.0%      0.0%      0.0%
 flops  1878 x   425 x   416        6165140467200     100.0%      0.0%      0.0%
 flops  1884 x   416 x   425        6184837401600     100.0%      0.0%      0.0%
 flops  1884 x   425 x   416        6184837401600     100.0%      0.0%      0.0%
 flops  1878 x   425 x   425        6298520910000     100.0%      0.0%      0.0%
 flops  1884 x   425 x   425        6318643980000     100.0%      0.0%      0.0%
 flops   448 x   448 x   448        8184458641408     100.0%      0.0%      0.0%
 flops   416 x   448 x  1878       10480373170176     100.0%      0.0%      0.0%
 flops   448 x   416 x  1878       10480373170176     100.0%      0.0%      0.0%
 flops   416 x   448 x  1884       10513856790528     100.0%      0.0%      0.0%
 flops   448 x   416 x  1884       10513856790528     100.0%      0.0%      0.0%
 flops   425 x   448 x  1878       10707112012800     100.0%      0.0%      0.0%
 flops   448 x   425 x  1878       10707112012800     100.0%      0.0%      0.0%
 flops   425 x   448 x  1884       10741320038400     100.0%      0.0%      0.0%
 flops   448 x   425 x  1884       10741320038400     100.0%      0.0%      0.0%
 flops  1878 x   416 x  1878       11702257542144     100.0%      0.0%      0.0%
 flops  1878 x   416 x  1884       11739644946432     100.0%      0.0%      0.0%
 flops  1884 x   416 x  1878       11739644946432     100.0%      0.0%      0.0%
 flops  1884 x   416 x  1884       11777151799296     100.0%      0.0%      0.0%
 flops  1878 x   425 x  1878       11955431383200     100.0%      0.0%      0.0%
 flops  1878 x   425 x  1884       11993627649600     100.0%      0.0%      0.0%
 flops  1884 x   425 x  1878       11993627649600     100.0%      0.0%      0.0%
 flops  1884 x   425 x  1884       12031945948800     100.0%      0.0%      0.0%
 flops  1878 x   448 x   416       12997566726144     100.0%      0.0%      0.0%
 flops  1878 x   416 x   448       12997566726144     100.0%      0.0%      0.0%
 flops  1884 x   416 x   448       13039092498432     100.0%      0.0%      0.0%
 flops  1884 x   448 x   416       13039092498432     100.0%      0.0%      0.0%
 flops  1878 x   448 x   425       13278764083200     100.0%      0.0%      0.0%
 flops  1878 x   425 x   448       13278764083200     100.0%      0.0%      0.0%
 flops  1884 x   425 x   448       13321188249600     100.0%      0.0%      0.0%
 flops  1884 x   448 x   425       13321188249600     100.0%      0.0%      0.0%
 flops    13 x    13 x   416       13855909959424       0.0%    100.0%      0.0%
 flops    13 x    13 x   425       14155677242200       0.0%    100.0%      0.0%
 flops   448 x   448 x  1878       22573111443456     100.0%      0.0%      0.0%
 flops   448 x   448 x  1884       22645230010368     100.0%      0.0%      0.0%
 flops  1878 x   448 x  1878       25204862398464     100.0%      0.0%      0.0%
 flops  1878 x   448 x  1884       25285389115392     100.0%      0.0%      0.0%
 flops  1884 x   448 x  1878       25285389115392     100.0%      0.0%      0.0%
 flops  1884 x   448 x  1884       25366173106176     100.0%      0.0%      0.0%
 flops  1878 x   448 x   448       27994759102464     100.0%      0.0%      0.0%
 flops  1884 x   448 x   448       28084199227392     100.0%      0.0%      0.0%
 flops    13 x    13 x   448       29843498374144       0.0%    100.0%      0.0%
 flops    13 x    32 x    13      243887120875008       0.0%    100.0%      0.0%
 flops inhomo. stacks                           0       0.0%      0.0%      0.0%
 flops total                       942.968914E+12      67.5%     32.5%      0.0%
 flops max/rank                     62.512085E+12      66.5%     33.5%      0.0%
 matmuls inhomo. stacks                         0       0.0%      0.0%      0.0%
 matmuls total                        23952213134       0.0%    100.0%      0.0%
 number of processed stacks              25781407       3.7%     96.3%      0.0%
 average stack size                                     1.0     965.1       0.0
 marketing flops                     1.274562E+15
 -------------------------------------------------------------------------------
 # multiplications                          18391
 max memory usage/rank               2.039210E+09
 # max total images/rank                        1
 # max 3D layers                                1
 # MPI messages exchanged                 1765536
 MPI messages size (bytes):
  total size                         9.692989E+12
  min size                           0.000000E+00
  max size                          28.395648E+06
  average size                       5.490112E+06
 MPI breakdown and total messages size (bytes):
             size <=      128                6468                        0
       128 < size <=     8192                   0                        0
      8192 < size <=    32768                   0                        0
     32768 < size <=   131072                 588                 65123352
    131072 < size <=  4194304              768960            1160041137120
   4194304 < size <= 16777216              902226            6479214367200
  16777216 < size                           87294            2054822870496
 -------------------------------------------------------------------------------

 MEMORY| Estimated peak process memory [MiB]                                1945

 -------------------------------------------------------------------------------
 -                                                                             -
 -                         MESSAGE PASSING PERFORMANCE                         -
 -                                                                             -
 -------------------------------------------------------------------------------

 ROUTINE             CALLS      AVE VOLUME [Bytes]
 MP_Group              636
 MP_Bcast             7890                  51580.
 MP_Allreduce       122003                    317.
 MP_Sync                 4
 MP_Alltoall         80447               35957494.
 MP_SendRecv          2460                  25789.
 MP_ISendRecv        59370                 730080.
 MP_Wait            986589
 MP_ISend           326388                2356958.
 MP_IRecv           326388                2362596.
 MP_Recv              5457                1373184.
 MP_Memory          810058
 -------------------------------------------------------------------------------


 -------------------------------------------------------------------------------
 -                                                                             -
 -                           R E F E R E N C E S                               -
 -                                                                             -
 -------------------------------------------------------------------------------
 
 CP2K version 7.0 (Development Version), the CP2K developers group (2018).
 CP2K is freely available from https://www.cp2k.org/ .

 Schuett, Ole; Messmer, Peter; Hutter, Juerg; VandeVondele, Joost. 
 Electronic Structure Calculations on Graphics Processing Units, John Wiley & Sons, Ltd, 173-190 (2016). 
 GPU-Accelerated Sparse Matrix-Matrix Multiplication for Linear Scaling Density Functional Theory.
 http://dx.doi.org/10.1002/9781118670712.ch8


 Borstnik, U; VandeVondele, J; Weber, V; Hutter, J. 
 PARALLEL COMPUTING, 40 (5-6), 47-58 (2014). 
 Sparse matrix multiplication: The distributed block-compressed sparse
 row library.
 http://dx.doi.org/10.1016/j.parco.2014.03.012


 Hutter, J; Iannuzzi, M; Schiffmann, F; VandeVondele, J. 
 WILEY INTERDISCIPLINARY REVIEWS-COMPUTATIONAL MOLECULAR SCIENCE, 4 (1), 15-25 (2014). 
 CP2K: atomistic simulations of condensed matter systems.
 http://dx.doi.org/10.1002/wcms.1159


 Grimme, S; Ehrlich, S; Goerigk, L. 
 JOURNAL OF COMPUTATIONAL CHEMISTRY, 32, 1456 (2011). 
 Effect of the damping function in dispersion corrected density functional theory.
 http://dx.doi.org/10.1002/jcc.21759


 Grimme, S; Antony, J; Ehrlich, S; Krieg, H. 
 JOURNAL OF CHEMICAL PHYSICS, 132 (15), 154104 (2010). 
 A consistent and accurate ab initio parametrization of density
 functional dispersion correction (DFT-D) for the 94 elements H-Pu.
 http://dx.doi.org/10.1063/1.3382344


 VandeVondele, J; Hutter, J. 
 JOURNAL OF CHEMICAL PHYSICS, 127 (11), 114105 (2007). 
 Gaussian basis sets for accurate calculations on molecular systems in
 gas and condensed phases.
 http://dx.doi.org/10.1063/1.2770708


 Krack, M. 
 THEORETICAL CHEMISTRY ACCOUNTS, 114 (1-3), 145-152 (2005). 
 Pseudopotentials for H to Kr optimized for gradient-corrected
 exchange-correlation functionals.
 http://dx.doi.org/10.1007/s00214-005-0655-y


 VandeVondele, J; Krack, M; Mohamed, F; Parrinello, M; Chassaing, T;
 Hutter, J. COMPUTER PHYSICS COMMUNICATIONS, 167 (2), 103-128 (2005). 
 QUICKSTEP: Fast and accurate density functional calculations using a
 mixed Gaussian and plane waves approach.
 http://dx.doi.org/10.1016/j.cpc.2004.12.014


 Frigo, M; Johnson, SG. 
 PROCEEDINGS OF THE IEEE, 93 (2), 216-231 (2005). 
 The design and implementation of FFTW3.
 http://dx.doi.org/10.1109/JPROC.2004.840301


 Kolafa, J. 
 JOURNAL OF COMPUTATIONAL CHEMISTRY, 25 (3), 335-342 (2004). 
 Time-reversible always stable predictor-corrector method for molecular dynamics of polarizable molecules.
 http://dx.doi.org/10.1002/jcc.10385


 VandeVondele, J; Hutter, J. 
 JOURNAL OF CHEMICAL PHYSICS, 118 (10), 4365-4369 (2003). 
 An efficient orbital transformation method for electronic structure
 calculations.
 http://dx.doi.org/10.1063/1.1543154


 Hartwigsen, C; Goedecker, S; Hutter, J. 
 PHYSICAL REVIEW B, 58 (7), 3641-3662 (1998). 
 Relativistic separable dual-space Gaussian pseudopotentials from H to Rn.
 http://dx.doi.org/10.1103/PhysRevB.58.3641


 Lippert, G; Hutter, J; Parrinello, M. 
 MOLECULAR PHYSICS, 92 (3), 477-487 (1997). 
 A hybrid Gaussian and plane wave density functional scheme.
 http://dx.doi.org/10.1080/002689797170220


 Perdew, JP; Burke, K; Ernzerhof, M. 
 PHYSICAL REVIEW LETTERS, 77 (18), 3865-3868 (1996). 
 Generalized gradient approximation made simple.
 http://dx.doi.org/10.1103/PhysRevLett.77.3865


 Goedecker, S; Teter, M; Hutter, J. 
 PHYSICAL REVIEW B, 54 (3), 1703-1710 (1996). 
 Separable dual-space Gaussian pseudopotentials.
 http://dx.doi.org/10.1103/PhysRevB.54.1703


 -------------------------------------------------------------------------------
 -                                                                             -
 -                                T I M I N G                                  -
 -                                                                             -
 -------------------------------------------------------------------------------
 SUBROUTINE                       CALLS  ASD         SELF TIME        TOTAL TIME
                                MAXIMUM       AVERAGE  MAXIMUM  AVERAGE  MAXIMUM
 CP2K                                 1  1.0     0.21     0.26 18966.79 18966.80
 cp_geo_opt                           1  2.0     0.02     0.02 18963.70 18963.74
 geoopt_bfgs                          1  3.0     0.17     0.24 18963.68 18963.72
 cp_eval_at                          42  4.0     0.03     0.04 18869.15 18869.29
 qs_forces                           41  5.0     0.01     0.01 18664.43 18664.44
 qs_energies                         42  6.0     0.04     0.05 18221.68 18223.18
 scf_env_do_scf                      42  7.0     0.03     0.04 17688.74 17689.00
 scf_env_do_scf_inner_loop          948  8.0     0.08     0.29 16710.01 17000.94
 rebuild_ks_matrix                  989  9.9     0.01     0.01 10302.41 10344.46
 qs_ks_build_kohn_sham_matrix       989 10.9     0.20     0.22 10302.40 10344.45
 qs_ks_update_qs_env                997  9.0     0.01     0.01  9833.20  9873.52
 pw_transfer                      18838 13.5     2.12     2.52  6962.77  6998.63
 fft_wrap_pw1pw2                  16860 14.6     0.26     0.29  6900.13  6935.99
 fft_wrap_pw1pw2_150              10923 15.7   502.22   523.81  6628.77  6671.98
 qs_vxc_create                      989 11.9     0.03     0.04  5744.11  5753.59
 xc_vxc_pw_create                   989 12.9    72.32    75.43  5744.08  5753.56
 fft3d_ps                         16860 16.6  3018.35  3117.88  5087.36  5208.18
 dbcsr_multiply_generic           18391 14.0     1.43     1.55  4138.52  4192.42
 qs_rho_update_rho                  990  9.0     0.01     0.01  3892.80  3938.57
 calculate_rho_elec                 990 10.0  2005.65  2042.31  3892.79  3938.56
 qs_scf_new_mos                     948  9.0     0.01     0.01  3597.86  3663.49
 qs_scf_loop_do_ot                  948 10.0     0.01     0.01  3597.85  3663.47
 multiply_cannon                  18391 15.0     2.86     3.09  3500.25  3657.52
 multiply_cannon_multrec          73564 16.0  3107.20  3299.36  3107.51  3299.65
 ot_scf_mini                        948 11.0     0.05     0.06  3231.02  3291.26
 sum_up_and_integrate               989 11.9    14.91    15.36  3114.25  3115.23
 integrate_v_rspace                 989 12.9  2010.87  2037.57  3099.34  3100.69
 xc_rho_set_and_dset_create         989 13.9    25.71    27.05  3058.59  3085.43
 ot_mini                            948 12.0     0.01     0.01  2082.97  2149.95
 density_rs2pw                      990 11.0     0.06     0.08  1620.40  1667.44
 qs_ot_get_derivative               948 13.0     0.01     0.01  1332.32  1392.91
 x_to_yz                           8902 18.1   866.37   887.71  1206.98  1282.25
 potential_pw2rs                    989 13.9     2.02     2.13  1010.92  1012.27
 yz_to_x                           7958 17.1   515.03   540.16   861.65   970.57
 xc_functional_eval                 989 14.9     0.13     0.14   898.73   922.79
 pbe_lda_eval                       989 15.9   898.60   922.68   898.60   922.68
 mp_alltoall_z22v                 16860 18.6   687.23   909.78   687.23   909.78
 qs_ot_get_derivative_taylor        871 14.0     0.04     0.05   808.74   864.48
 pw_gather_p                       7958 16.1   663.24   752.03   663.24   752.03
 ot_diis_step                       948 13.0     0.06     0.07   746.78   746.79
 apply_preconditioner_dbcsr         997 14.0     0.00     0.01   693.47   708.02
 apply_single                       997 15.0     0.00     0.01   693.46   708.01
 pw_scatter_p                      8902 17.1   629.71   703.24   629.71   703.24
 init_scf_loop                       49  8.0     0.00     0.00   690.34   690.64
 rs_pw_transfer                    7999 13.4     0.19     0.23   552.13   603.33
 write_mo_set_to_restart            948  9.0    30.55   488.14    47.84   500.74
 qs_ks_update_qs_env_forces          41  6.0     0.00     0.00   476.86   478.57
 mp_waitall_1                    954261 17.6   382.79   423.49   382.79   423.49
 calculate_dm_sparse                990 10.9     0.01     0.01   384.28   421.78
 make_m2s                         36782 15.0     1.12     1.31   404.15   414.66
 init_scf_run                        42  7.0     0.00     0.02   393.89   393.90
 scf_env_initial_rho_setup           42  8.0     0.00     0.01   393.89   393.90
 wfi_extrapolate                     42  9.0     0.01     0.01   385.30   385.31
 -------------------------------------------------------------------------------

 The number of warnings for this run is : 1
 
 -------------------------------------------------------------------------------
  **** **** ******  **  PROGRAM ENDED AT                 2024-02-01 23:32:12.357
 ***** ** ***  *** **   PROGRAM RAN ON                                sebnode105
 **    ****   ******    PROGRAM RAN BY                                    luehrs
 ***** **    ** ** **   PROGRAM PROCESS ID                               2440199
  **** **  *******  **  PROGRAM STOPPED IN /home/luehrs/PhD/Li-S_paper/Li-S-Surf
                                           ace_Reaction/Third_Lithiation_of_S8_S
                                           urface/Third_Lithiation_around_S8/Thi
                                           rd_Lithiation_L4/Third_Lithiation_par
                                           allel/3.S8_p
