 DBCSR| Multiplication driver                                               XSMM
 DBCSR| Multrec recursion limit                                              512
 DBCSR| Multiplication stack size                                           1000
 DBCSR| Maximum elements for images                                    UNLIMITED
 DBCSR| Multiplicative factor virtual images                                   1
 DBCSR| Multiplication size stacks                                             3
 DBCSR| Number of 3D layers                                               SINGLE
 DBCSR| Use MPI memory allocation                                              T
 DBCSR| Use RMA algorithm                                                      F
 DBCSR| Use Communication thread                                               T
 DBCSR| Communication thread load                                             87


  **** **** ******  **  PROGRAM STARTED AT               2023-02-24 03:56:29.492
 ***** ** ***  *** **   PROGRAM STARTED ON                            sebnode036
 **    ****   ******    PROGRAM STARTED BY                                luehrs
 ***** **    ** ** **   PROGRAM PROCESS ID                                798358
  **** **  *******  **  PROGRAM STARTED IN /home/luehrs/PhD/Li-S_paper/Li-S-Surf
                                           ace_Reaction/Third_Lithiation_of_S8_S
                                           urface/Third_Lithiation_parallel/8.S8
                                           _p

 CP2K| version string:                    CP2K version 7.0 (Development Version)
 CP2K| source code revision number:                                             
 CP2K| cp2kflags: libint fftw3 libxc parallel mpi3 scalapack xsmm libderiv_max_a
 CP2K|            m1=8 libint_max_am=9 max_contr=4
 CP2K| is freely available from                            https://www.cp2k.org/
 CP2K| Program compiled at                         Sun Jun 24 14:37:16 CEST 2018
 CP2K| Program compiled on                                            sebstorage
 CP2K| Program compiled for                                Linux-x86-64-gfortran
 CP2K| Data directory path    /home/brehm/Software_Batchnode/2018/Source/cp2k_18
 CP2K| Input file name                                              input8.8.inp

 GLOBAL| Force Environment number                                              1
 GLOBAL| Basis set file name                                      ./BASIS_MOLOPT
 GLOBAL| Potential file name                                    ./GTH_POTENTIALS
 GLOBAL| MM Potential file name                                     MM_POTENTIAL
 GLOBAL| Coordinate file name                 ./Third_lithiation_8.p_relaxed.xyz
 GLOBAL| Method name                                                        CP2K
 GLOBAL| Project name                                                   Li_react
 GLOBAL| Preferred FFT library                                             FFTW3
 GLOBAL| Preferred diagonalization lib.                                       SL
 GLOBAL| Run type                                                        GEO_OPT
 GLOBAL| All-to-all communication in single precision                          F
 GLOBAL| FFTs using library dependent lengths                                  F
 GLOBAL| Global print level                                                  LOW
 GLOBAL| Total number of message passing processes                            16
 GLOBAL| Number of threads for this process                                    1
 GLOBAL| This output is from process                                           0
 GLOBAL| CPU model name :  Intel(R) Xeon(R) CPU E5-2630 v3 @ 2.40GHz

 MEMORY| system memory details [Kb]
 MEMORY|                        rank 0           min           max       average
 MEMORY| MemTotal             65850808      65850808      65850808      65850808
 MEMORY| MemFree              55378560      55378560      55378560      55378560
 MEMORY| Buffers                339868        339868        339868        339868
 MEMORY| Cached                8370528       8370528       8370528       8370528
 MEMORY| Slab                   803792        803792        803792        803792
 MEMORY| SReclaimable           513468        513468        513468        513468
 MEMORY| MemLikelyFree        64602424      64602424      64602424      64602424


 GENERATE|  Preliminary Number of Bonds generated:                             0
 GENERATE|  Achieved consistency in connectivity generation.

 *******************************************************************************
 *******************************************************************************
 **                                                                           **
 **     #####                         ##              ##                      **
 **    ##   ##            ##          ##              ##                      **
 **   ##     ##                       ##            ######                    **
 **   ##     ##  ##   ##  ##   #####  ##  ##   ####   ##    #####    #####    **
 **   ##     ##  ##   ##  ##  ##      ## ##   ##      ##   ##   ##  ##   ##   **
 **   ##  ## ##  ##   ##  ##  ##      ####     ###    ##   ######   ######    **
 **    ##  ###   ##   ##  ##  ##      ## ##      ##   ##   ##       ##        **
 **     #######   #####   ##   #####  ##  ##  ####    ##    #####   ##        **
 **           ##                                                    ##        **
 **                                                                           **
 **                                                ... make the atoms dance   **
 **                                                                           **
 **            Copyright (C) by CP2K developers group (2000 - 2018)           **
 **                                                                           **
 *******************************************************************************


 TOTAL NUMBERS AND MAXIMUM NUMBERS

  Total number of            - Atomic kinds:                                   2
                             - Atoms:                                        582
                             - Shell sets:                                   582
                             - Shells:                                      2904
                             - Primitive Cartesian functions:               3486
                             - Cartesian basis functions:                   8100
                             - Spherical basis functions:                   7524

  Maximum angular momentum of- Orbital basis functions:                        2
                             - Local part of the GTH pseudopotential:          6
                             - Non-local part of the GTH pseudopotential:      2


 SCF PARAMETERS         Density guess:                                   RESTART
                        --------------------------------------------------------
                        max_scf:                                              30
                        max_scf_history:                                       0
                        max_diis:                                              4
                        --------------------------------------------------------
                        eps_scf:                                        1.00E-06
                        eps_scf_history:                                0.00E+00
                        eps_diis:                                       1.00E-01
                        eps_eigval:                                     1.00E-05
                        --------------------------------------------------------
                        level_shift [a.u.]:                                 0.00
                        --------------------------------------------------------
                        Outer loop SCF in use 
                        No variables optimised in outer loop
                        eps_scf                                         1.00E-06
                        max_scf                                               25
                        DIIS optimization
                        DIIS buffer length                                     3
                        step_size                                       5.00E-01

 BFGS| Use rational function optimization for step estimation:                NO
 BFGS| Use model Hessian for initial guess:                                  YES
 BFGS| Restart Hessian:                                                       NO
 BFGS| Trust radius:                                                       0.472

 *******************************************************************************
 ***                     STARTING GEOMETRY OPTIMIZATION                      ***
 ***                                   BFGS                                  ***
 *******************************************************************************

 Number of electrons:                                                       3474
 Number of occupied orbitals:                                               1737
 Number of molecular orbitals:                                              1737

 Number of orbital functions:                                               7524
 Number of independent orbital functions:                                   7524

 Extrapolation method: initial_guess

 *** WARNING in qs_initial_guess.F:263 :: User requested to restart the   ***
 *** wavefunction from the file named: Li_react-RESTART.wfn. This file    ***
 *** does not exist. Please check the existence of the file or change     ***
 *** properly the value of the keyword WFN_RESTART_FILE_NAME. Calculation ***
 *** continues using ATOMIC GUESS.                                        ***



 SCF WAVEFUNCTION OPTIMIZATION

  ----------------------------------- OT ---------------------------------------
  Minimizer      : DIIS                : direct inversion
                                         in the iterative subspace
                                         using   8 DIIS vectors
                                         safer DIIS on
  Preconditioner : FULL_KINETIC        : inversion of T + eS
  Precond_solver : DEFAULT
  stepsize       :    0.15000000                  energy_gap     :    0.00010000
  eps_taylor     :   0.10000E-15                  max_taylor     :             4
  ----------------------------------- OT ---------------------------------------

  Step     Update method      Time    Convergence         Total energy    Change
  ------------------------------------------------------------------------------
     1 OT DIIS     0.15E+00   16.4     0.00636613     -5756.6869850555 -5.76E+03
     2 OT DIIS     0.15E+00   16.7     0.02302157     -5764.3475145961 -7.66E+00
     3 OT DIIS     0.15E+00   16.8     0.00716892     -5809.4786271167 -4.51E+01
     4 OT DIIS     0.15E+00   16.8     0.00721398     -5828.4906774324 -1.90E+01
     5 OT DIIS     0.15E+00   16.8     0.00588815     -5844.4961239202 -1.60E+01
     6 OT DIIS     0.15E+00   16.8     0.00380913     -5857.6914580738 -1.32E+01
     7 OT DIIS     0.15E+00   16.8     0.00267751     -5873.5688525636 -1.59E+01
     8 OT DIIS     0.15E+00   16.8     0.00285676     -5883.9828606588 -1.04E+01
     9 OT DIIS     0.15E+00   16.9     0.00199887     -5891.9249882421 -7.94E+00
    10 OT DIIS     0.15E+00   16.8     0.00183431     -5897.1575323358 -5.23E+00
    11 OT DIIS     0.15E+00   16.8     0.00159438     -5901.5217833897 -4.36E+00
    12 OT DIIS     0.15E+00   16.8     0.00177711     -5904.5107611208 -2.99E+00
    13 OT DIIS     0.15E+00   16.8     0.00130381     -5907.4969570002 -2.99E+00
    14 OT DIIS     0.15E+00   16.8     0.00118566     -5910.3363128537 -2.84E+00
    15 OT DIIS     0.15E+00   16.9     0.00094876     -5913.1221780542 -2.79E+00
    16 OT DIIS     0.15E+00   16.9     0.00084322     -5915.4798757788 -2.36E+00
    17 OT DIIS     0.15E+00   16.9     0.00096060     -5917.1606316833 -1.68E+00
    18 OT DIIS     0.15E+00   16.7     0.00075617     -5918.5568805927 -1.40E+00
    19 OT DIIS     0.15E+00   16.7     0.00072605     -5919.8054692532 -1.25E+00
    20 OT DIIS     0.15E+00   16.8     0.00071320     -5920.7490135999 -9.44E-01
    21 OT DIIS     0.15E+00   16.6     0.00066344     -5921.5596473112 -8.11E-01
    22 OT DIIS     0.15E+00   16.7     0.00057098     -5922.2874973649 -7.28E-01
    23 OT DIIS     0.15E+00   16.8     0.00052930     -5922.9974206427 -7.10E-01
    24 OT DIIS     0.15E+00   16.8     0.00049229     -5923.5160169802 -5.19E-01
    25 OT DIIS     0.15E+00   16.8     0.00040880     -5923.9731342114 -4.57E-01
    26 OT DIIS     0.15E+00   16.8     0.00040821     -5924.4398043533 -4.67E-01
    27 OT DIIS     0.15E+00   16.8     0.00037871     -5924.6615806639 -2.22E-01
    28 OT DIIS     0.15E+00   16.8     0.00035419     -5924.9980723930 -3.36E-01
    29 OT DIIS     0.15E+00   16.7     0.00033593     -5925.2116207970 -2.14E-01
    30 OT DIIS     0.15E+00   16.8     0.00034651     -5925.4409596027 -2.29E-01

  Leaving inner SCF loop after reaching    30 steps.


  Electronic density on regular grids:      -3474.0000000003       -0.0000000003
  Core density on regular grids:             3473.9999999952       -0.0000000048
  Total charge density on r-space grids:       -0.0000000052
  Total charge density g-space grids:          -0.0000000041

  Overlap energy of the core charge distribution:               0.00000032799697
  Self energy of the core charge distribution:             -13965.50565932552126
  Core Hamiltonian energy:                                   3147.35956852440904
  Hartree energy:                                            6202.34833240150147
  Exchange-correlation energy:                              -1307.17185313294362
  Dispersion energy:                                           -2.47134839809801

  Total energy:                                             -5925.44095960265531

  outer SCF iter =    1 RMS gradient =   0.35E-03 energy =      -5925.4409596027

  ----------------------------------- OT ---------------------------------------
  Minimizer      : DIIS                : direct inversion
                                         in the iterative subspace
                                         using   8 DIIS vectors
                                         safer DIIS on
  Preconditioner : FULL_KINETIC        : inversion of T + eS
  Precond_solver : DEFAULT
  stepsize       :    0.15000000                  energy_gap     :    0.00010000
  eps_taylor     :   0.10000E-15                  max_taylor     :             4
  ----------------------------------- OT ---------------------------------------

  Step     Update method      Time    Convergence         Total energy    Change
  ------------------------------------------------------------------------------
     1 OT DIIS     0.15E+00   37.0     0.00040107     -5925.6263123207 -1.85E-01
     2 OT DIIS     0.15E+00   16.4     0.00094882     -5925.7384031258 -1.12E-01
     3 OT DIIS     0.15E+00   16.4     0.00034703     -5925.8919039662 -1.54E-01
     4 OT DIIS     0.15E+00   16.8     0.00050682     -5926.0367992122 -1.45E-01
     5 OT DIIS     0.15E+00   16.8     0.00037624     -5926.2130177982 -1.76E-01
     6 OT DIIS     0.15E+00   16.8     0.00029749     -5926.3770452237 -1.64E-01
     7 OT DIIS     0.15E+00   16.8     0.00028464     -5926.4852045991 -1.08E-01
     8 OT DIIS     0.15E+00   16.8     0.00030270     -5926.6568941383 -1.72E-01
     9 OT DIIS     0.15E+00   16.8     0.00026515     -5926.8519217513 -1.95E-01
    10 OT DIIS     0.15E+00   16.8     0.00029251     -5926.8548850982 -2.96E-03
    11 OT DIIS     0.15E+00   16.7     0.00023698     -5927.0829541926 -2.28E-01
    12 OT DIIS     0.15E+00   16.8     0.00025299     -5927.1606513292 -7.77E-02
    13 OT DIIS     0.15E+00   16.8     0.00020051     -5927.2554576344 -9.48E-02
    14 OT DIIS     0.15E+00   16.8     0.00024369     -5927.3395357432 -8.41E-02
    15 OT DIIS     0.15E+00   16.8     0.00017576     -5927.4067292409 -6.72E-02
    16 OT DIIS     0.15E+00   16.8     0.00017141     -5927.4506934094 -4.40E-02
    17 OT DIIS     0.15E+00   16.8     0.00014888     -5927.4943129114 -4.36E-02
    18 OT DIIS     0.15E+00   16.8     0.00014364     -5927.5365183646 -4.22E-02
    19 OT DIIS     0.15E+00   16.8     0.00014864     -5927.5428123522 -6.29E-03
    20 OT DIIS     0.15E+00   16.8     0.00011431     -5927.5765218975 -3.37E-02
    21 OT DIIS     0.15E+00   16.8     0.00011559     -5927.5942682823 -1.77E-02
    22 OT DIIS     0.15E+00   16.8     0.00010029     -5927.6095074787 -1.52E-02
    23 OT DIIS     0.15E+00   16.8     0.00010641     -5927.6284490557 -1.89E-02
    24 OT DIIS     0.15E+00   16.7     0.00009326     -5927.6411298326 -1.27E-02
    25 OT DIIS     0.15E+00   16.8     0.00009259     -5927.6570770335 -1.59E-02
    26 OT DIIS     0.15E+00   16.8     0.00008955     -5927.6731037724 -1.60E-02
    27 OT DIIS     0.15E+00   16.8     0.00008734     -5927.6943204736 -2.12E-02
    28 OT DIIS     0.15E+00   16.8     0.00010215     -5927.7003009017 -5.98E-03
    29 OT DIIS     0.15E+00   16.8     0.00008065     -5927.7224298799 -2.21E-02
    30 OT DIIS     0.15E+00   16.8     0.00008601     -5927.7351866520 -1.28E-02

  Leaving inner SCF loop after reaching    30 steps.


  Electronic density on regular grids:      -3474.0000000003       -0.0000000003
  Core density on regular grids:             3473.9999999952       -0.0000000048
  Total charge density on r-space grids:       -0.0000000051
  Total charge density g-space grids:          -0.0000000041

  Overlap energy of the core charge distribution:               0.00000032799697
  Self energy of the core charge distribution:             -13965.50565932552126
  Core Hamiltonian energy:                                   3144.53617904371413
  Hartree energy:                                            6203.20809700388054
  Exchange-correlation energy:                              -1307.50245530397115
  Dispersion energy:                                           -2.47134839809801

  Total energy:                                             -5927.73518665199845

  outer SCF iter =    2 RMS gradient =   0.86E-04 energy =      -5927.7351866520

  ----------------------------------- OT ---------------------------------------
  Minimizer      : DIIS                : direct inversion
                                         in the iterative subspace
                                         using   8 DIIS vectors
                                         safer DIIS on
  Preconditioner : FULL_KINETIC        : inversion of T + eS
  Precond_solver : DEFAULT
  stepsize       :    0.15000000                  energy_gap     :    0.00010000
  eps_taylor     :   0.10000E-15                  max_taylor     :             4
  ----------------------------------- OT ---------------------------------------

  Step     Update method      Time    Convergence         Total energy    Change
  ------------------------------------------------------------------------------
     1 OT DIIS     0.15E+00   38.3     0.00008542     -5927.7452952040 -1.01E-02
     2 OT DIIS     0.15E+00   16.3     0.00027998     -5927.7427209508  2.57E-03
     3 OT DIIS     0.15E+00   16.3     0.00007315     -5927.7548147803 -1.21E-02
     4 OT DIIS     0.15E+00   16.3     0.00007411     -5927.7577453198 -2.93E-03
     5 OT DIIS     0.15E+00   16.4     0.00010136     -5927.7656473928 -7.90E-03
     6 OT DIIS     0.15E+00   16.4     0.00004926     -5927.7754394840 -9.79E-03
     7 OT DIIS     0.15E+00   16.4     0.00005012     -5927.7802157218 -4.78E-03
     8 OT DIIS     0.15E+00   16.7     0.00006388     -5927.7854299709 -5.21E-03
     9 OT SD       0.15E+00   16.8     0.00005317     -5927.7963809732 -1.10E-02
    10 OT DIIS     0.15E+00   16.8     0.00026392     -5927.7882951134  8.09E-03
    11 OT DIIS     0.15E+00   16.8     0.00003922     -5927.8028284837 -1.45E-02
    12 OT DIIS     0.15E+00   16.8     0.00003390     -5927.8051750586 -2.35E-03
    13 OT DIIS     0.15E+00   16.8     0.00002467     -5927.8058370733 -6.62E-04
    14 OT DIIS     0.15E+00   16.8     0.00002785     -5927.8064853167 -6.48E-04
    15 OT DIIS     0.15E+00   16.8     0.00001741     -5927.8070907319 -6.05E-04
    16 OT DIIS     0.15E+00   16.8     0.00001635     -5927.8075271685 -4.36E-04
    17 OT DIIS     0.15E+00   16.8     0.00001935     -5927.8076733924 -1.46E-04
    18 OT DIIS     0.15E+00   16.8     0.00001254     -5927.8083214066 -6.48E-04
    19 OT DIIS     0.15E+00   16.8     0.00001375     -5927.8086040013 -2.83E-04
    20 OT DIIS     0.15E+00   16.9     0.00001393     -5927.8088204575 -2.16E-04
    21 OT DIIS     0.15E+00   16.7     0.00001147     -5927.8091243489 -3.04E-04
    22 OT DIIS     0.15E+00   16.8     0.00001258     -5927.8093212285 -1.97E-04
    23 OT DIIS     0.15E+00   16.8     0.00001250     -5927.8096551840 -3.34E-04
    24 OT DIIS     0.15E+00   16.7     0.00001210     -5927.8099659083 -3.11E-04
    25 OT DIIS     0.15E+00   16.7     0.00001011     -5927.8102942133 -3.28E-04
    26 OT DIIS     0.15E+00   16.7     0.00001328     -5927.8105142419 -2.20E-04
    27 OT DIIS     0.15E+00   16.7     0.00000907     -5927.8108141831 -3.00E-04
    28 OT DIIS     0.15E+00   16.7     0.00000857     -5927.8110541049 -2.40E-04
    29 OT DIIS     0.15E+00   16.7     0.00000926     -5927.8113089865 -2.55E-04
    30 OT DIIS     0.15E+00   16.7     0.00000815     -5927.8115876871 -2.79E-04

  Leaving inner SCF loop after reaching    30 steps.


  Electronic density on regular grids:      -3474.0000000003       -0.0000000003
  Core density on regular grids:             3473.9999999952       -0.0000000048
  Total charge density on r-space grids:       -0.0000000051
  Total charge density g-space grids:          -0.0000000041

  Overlap energy of the core charge distribution:               0.00000032799697
  Self energy of the core charge distribution:             -13965.50565932552126
  Core Hamiltonian energy:                                   3144.44293955711782
  Hartree energy:                                            6203.24057677955807
  Exchange-correlation energy:                              -1307.51809662816640
  Dispersion energy:                                           -2.47134839809801

  Total energy:                                             -5927.81158768711248

  outer SCF iter =    3 RMS gradient =   0.82E-05 energy =      -5927.8115876871

  ----------------------------------- OT ---------------------------------------
  Minimizer      : DIIS                : direct inversion
                                         in the iterative subspace
                                         using   8 DIIS vectors
                                         safer DIIS on
  Preconditioner : FULL_KINETIC        : inversion of T + eS
  Precond_solver : DEFAULT
  stepsize       :    0.15000000                  energy_gap     :    0.00010000
  eps_taylor     :   0.10000E-15                  max_taylor     :             4
  ----------------------------------- OT ---------------------------------------

  Step     Update method      Time    Convergence         Total energy    Change
  ------------------------------------------------------------------------------
     1 OT DIIS     0.15E+00   36.9     0.00000893     -5927.8117762150 -1.89E-04
     2 OT DIIS     0.15E+00   16.3     0.00003153     -5927.8117438822  3.23E-05
     3 OT DIIS     0.15E+00   16.2     0.00000787     -5927.8118894219 -1.46E-04
     4 OT DIIS     0.15E+00   16.2     0.00000733     -5927.8119178099 -2.84E-05
     5 OT DIIS     0.15E+00   16.3     0.00000781     -5927.8120421317 -1.24E-04
     6 OT DIIS     0.15E+00   16.4     0.00000815     -5927.8124383452 -3.96E-04
     7 OT DIIS     0.15E+00   16.4     0.00000607     -5927.8125611918 -1.23E-04
     8 OT DIIS     0.15E+00   16.4     0.00000694     -5927.8127004181 -1.39E-04
     9 OT DIIS     0.15E+00   16.4     0.00000646     -5927.8128600173 -1.60E-04
    10 OT DIIS     0.15E+00   16.4     0.00000528     -5927.8129138323 -5.38E-05
    11 OT DIIS     0.15E+00   16.3     0.00000592     -5927.8131542427 -2.40E-04
    12 OT DIIS     0.15E+00   16.4     0.00000622     -5927.8132859159 -1.32E-04
    13 OT DIIS     0.15E+00   16.4     0.00000562     -5927.8133297534 -4.38E-05
    14 OT DIIS     0.15E+00   16.4     0.00000481     -5927.8134032364 -7.35E-05
    15 OT DIIS     0.15E+00   16.4     0.00000460     -5927.8135212738 -1.18E-04
    16 OT DIIS     0.15E+00   16.4     0.00000460     -5927.8135699414 -4.87E-05
    17 OT DIIS     0.15E+00   16.4     0.00000465     -5927.8136837053 -1.14E-04
    18 OT DIIS     0.15E+00   16.4     0.00000494     -5927.8138386361 -1.55E-04
    19 OT DIIS     0.15E+00   16.4     0.00000426     -5927.8138799999 -4.14E-05
    20 OT DIIS     0.15E+00   16.5     0.00000450     -5927.8140395573 -1.60E-04
    21 OT DIIS     0.15E+00   16.5     0.00000421     -5927.8141307098 -9.12E-05
    22 OT DIIS     0.15E+00   16.5     0.00000429     -5927.8141760728 -4.54E-05
    23 OT DIIS     0.15E+00   16.5     0.00000418     -5927.8142569692 -8.09E-05
    24 OT DIIS     0.15E+00   16.4     0.00000400     -5927.8144274364 -1.70E-04
    25 OT DIIS     0.15E+00   16.4     0.00000411     -5927.8145016161 -7.42E-05
    26 OT DIIS     0.15E+00   16.4     0.00000390     -5927.8146302745 -1.29E-04
    27 OT DIIS     0.15E+00   16.3     0.00000400     -5927.8147679961 -1.38E-04
    28 OT DIIS     0.15E+00   16.3     0.00000354     -5927.8148006706 -3.27E-05
    29 OT DIIS     0.15E+00   16.4     0.00000370     -5927.8149093711 -1.09E-04
    30 OT DIIS     0.15E+00   16.4     0.00000361     -5927.8150069191 -9.75E-05

  Leaving inner SCF loop after reaching    30 steps.


  Electronic density on regular grids:      -3474.0000008059       -0.0000008059
  Core density on regular grids:             3473.9999999952       -0.0000000048
  Total charge density on r-space grids:       -0.0000008107
  Total charge density g-space grids:          -0.0000008096

  Overlap energy of the core charge distribution:               0.00000032799697
  Self energy of the core charge distribution:             -13965.50565932552126
  Core Hamiltonian energy:                                   3144.44155796457699
  Hartree energy:                                            6203.24013737628775
  Exchange-correlation energy:                              -1307.51969486429471
  Dispersion energy:                                           -2.47134839809801

  Total energy:                                             -5927.81500691905239

  outer SCF iter =    4 RMS gradient =   0.36E-05 energy =      -5927.8150069191

  ----------------------------------- OT ---------------------------------------
  Minimizer      : DIIS                : direct inversion
                                         in the iterative subspace
                                         using   8 DIIS vectors
                                         safer DIIS on
  Preconditioner : FULL_KINETIC        : inversion of T + eS
  Precond_solver : DEFAULT
  stepsize       :    0.15000000                  energy_gap     :    0.00010000
  eps_taylor     :   0.10000E-15                  max_taylor     :             4
  ----------------------------------- OT ---------------------------------------

  Step     Update method      Time    Convergence         Total energy    Change
  ------------------------------------------------------------------------------
     1 OT DIIS     0.15E+00   37.9     0.00000437     -5927.8150669192 -6.00E-05
     2 OT DIIS     0.15E+00   16.1     0.00001953     -5927.8150364869  3.04E-05
     3 OT DIIS     0.15E+00   16.2     0.00000336     -5927.8150882312 -5.17E-05
     4 OT DIIS     0.15E+00   16.2     0.00000311     -5927.8150938841 -5.65E-06
     5 OT DIIS     0.15E+00   16.2     0.00000330     -5927.8151089130 -1.50E-05
     6 OT DIIS     0.15E+00   16.2     0.00000315     -5927.8151689667 -6.01E-05
     7 OT DIIS     0.15E+00   16.2     0.00000318     -5927.8152063949 -3.74E-05
     8 OT DIIS     0.15E+00   16.4     0.00000290     -5927.8152395396 -3.31E-05
     9 OT DIIS     0.15E+00   16.4     0.00000300     -5927.8152807747 -4.12E-05
    10 OT DIIS     0.15E+00   16.4     0.00000243     -5927.8152995896 -1.88E-05
    11 OT DIIS     0.15E+00   16.4     0.00000267     -5927.8153364536 -3.69E-05
    12 OT DIIS     0.15E+00   16.4     0.00000258     -5927.8153539198 -1.75E-05
    13 OT DIIS     0.15E+00   16.4     0.00000252     -5927.8153651535 -1.12E-05
    14 OT DIIS     0.15E+00   16.4     0.00000245     -5927.8153851835 -2.00E-05
    15 OT DIIS     0.15E+00   16.4     0.00000233     -5927.8154193683 -3.42E-05
    16 OT DIIS     0.15E+00   16.4     0.00000232     -5927.8154348874 -1.55E-05
    17 OT DIIS     0.15E+00   16.4     0.00000229     -5927.8154558000 -2.09E-05
    18 OT DIIS     0.15E+00   16.4     0.00000233     -5927.8154843362 -2.85E-05
    19 OT DIIS     0.15E+00   16.3     0.00000223     -5927.8154982094 -1.39E-05
    20 OT DIIS     0.15E+00   16.3     0.00000223     -5927.8155438589 -4.56E-05
    21 OT DIIS     0.15E+00   16.2     0.00000241     -5927.8155720906 -2.82E-05
    22 OT DIIS     0.15E+00   16.3     0.00000225     -5927.8155908739 -1.88E-05
    23 OT DIIS     0.15E+00   16.3     0.00000227     -5927.8156202896 -2.94E-05
    24 OT DIIS     0.15E+00   16.4     0.00000217     -5927.8156735013 -5.32E-05
    25 OT DIIS     0.15E+00   16.4     0.00000220     -5927.8157023694 -2.89E-05
    26 OT DIIS     0.15E+00   16.4     0.00000216     -5927.8157559718 -5.36E-05
    27 OT DIIS     0.15E+00   16.4     0.00000231     -5927.8158254506 -6.95E-05
    28 OT DIIS     0.15E+00   16.4     0.00000210     -5927.8158575069 -3.21E-05
    29 OT DIIS     0.15E+00   16.4     0.00000206     -5927.8159372573 -7.98E-05
    30 OT DIIS     0.15E+00   16.4     0.00000234     -5927.8159921148 -5.49E-05

  Leaving inner SCF loop after reaching    30 steps.


  Electronic density on regular grids:      -3474.0000000218       -0.0000000218
  Core density on regular grids:             3473.9999999952       -0.0000000048
  Total charge density on r-space grids:       -0.0000000267
  Total charge density g-space grids:          -0.0000000256

  Overlap energy of the core charge distribution:               0.00000032799697
  Self energy of the core charge distribution:             -13965.50565932552126
  Core Hamiltonian energy:                                   3144.44344733236539
  Hartree energy:                                            6203.23810608772328
  Exchange-correlation energy:                              -1307.52053813927887
  Dispersion energy:                                           -2.47134839809801

  Total energy:                                             -5927.81599211481262

  outer SCF iter =    5 RMS gradient =   0.23E-05 energy =      -5927.8159921148

  ----------------------------------- OT ---------------------------------------
  Minimizer      : DIIS                : direct inversion
                                         in the iterative subspace
                                         using   8 DIIS vectors
                                         safer DIIS on
  Preconditioner : FULL_KINETIC        : inversion of T + eS
  Precond_solver : DEFAULT
  stepsize       :    0.15000000                  energy_gap     :    0.00010000
  eps_taylor     :   0.10000E-15                  max_taylor     :             4
  ----------------------------------- OT ---------------------------------------

  Step     Update method      Time    Convergence         Total energy    Change
  ------------------------------------------------------------------------------
     1 OT DIIS     0.15E+00   36.6     0.00000215     -5927.8160194909 -2.74E-05
     2 OT DIIS     0.15E+00   16.1     0.00000749     -5927.8160190123  4.79E-07
     3 OT DIIS     0.15E+00   16.1     0.00000182     -5927.8160267621 -7.75E-06
     4 OT DIIS     0.15E+00   16.1     0.00000191     -5927.8160299996 -3.24E-06
     5 OT DIIS     0.15E+00   16.2     0.00000189     -5927.8160365379 -6.54E-06
     6 OT DIIS     0.15E+00   16.2     0.00000170     -5927.8160487447 -1.22E-05
     7 OT DIIS     0.15E+00   16.2     0.00000203     -5927.8160603961 -1.17E-05
     8 OT DIIS     0.15E+00   16.2     0.00000183     -5927.8160775174 -1.71E-05
     9 OT DIIS     0.15E+00   16.3     0.00000155     -5927.8160924930 -1.50E-05
    10 OT DIIS     0.15E+00   16.4     0.00000170     -5927.8161010762 -8.58E-06
    11 OT SD       0.15E+00   16.3     0.00000166     -5927.8161220914 -2.10E-05
    12 OT DIIS     0.15E+00   16.4     0.00000568     -5927.8161220479  4.35E-08
    13 OT DIIS     0.15E+00   16.4     0.00000152     -5927.8161420000 -2.00E-05
    14 OT DIIS     0.15E+00   16.4     0.00000159     -5927.8161575392 -1.55E-05
    15 OT DIIS     0.15E+00   16.4     0.00000140     -5927.8161655911 -8.05E-06
    16 OT DIIS     0.15E+00   16.5     0.00000153     -5927.8161786399 -1.30E-05
    17 OT DIIS     0.15E+00   16.4     0.00000142     -5927.8161919605 -1.33E-05
    18 OT DIIS     0.15E+00   16.4     0.00000133     -5927.8162024756 -1.05E-05
    19 OT DIIS     0.15E+00   16.4     0.00000146     -5927.8162104121 -7.94E-06
    20 OT DIIS     0.15E+00   16.5     0.00000126     -5927.8162333919 -2.30E-05
    21 OT DIIS     0.15E+00   16.4     0.00000148     -5927.8162438597 -1.05E-05
    22 OT DIIS     0.15E+00   16.4     0.00000133     -5927.8162548049 -1.09E-05
    23 OT DIIS     0.15E+00   16.4     0.00000139     -5927.8162725730 -1.78E-05
    24 OT DIIS     0.15E+00   16.4     0.00000122     -5927.8162800793 -7.51E-06
    25 OT DIIS     0.15E+00   16.4     0.00000136     -5927.8162964987 -1.64E-05
    26 OT DIIS     0.15E+00   16.4     0.00000127     -5927.8163108983 -1.44E-05
    27 OT DIIS     0.15E+00   16.4     0.00000119     -5927.8163224103 -1.15E-05
    28 OT DIIS     0.15E+00   16.4     0.00000125     -5927.8163315023 -9.09E-06
    29 OT DIIS     0.15E+00   16.4     0.00000106     -5927.8163479000 -1.64E-05
    30 OT DIIS     0.15E+00   16.4     0.00000124     -5927.8163558930 -7.99E-06

  Leaving inner SCF loop after reaching    30 steps.


  Electronic density on regular grids:      -3474.0000000027       -0.0000000027
  Core density on regular grids:             3473.9999999952       -0.0000000048
  Total charge density on r-space grids:       -0.0000000075
  Total charge density g-space grids:          -0.0000000065

  Overlap energy of the core charge distribution:               0.00000032799697
  Self energy of the core charge distribution:             -13965.50565932552126
  Core Hamiltonian energy:                                   3144.44923007506623
  Hartree energy:                                            6203.23400909789962
  Exchange-correlation energy:                              -1307.52258767029480
  Dispersion energy:                                           -2.47134839809801

  Total energy:                                             -5927.81635589295183

  outer SCF iter =    6 RMS gradient =   0.12E-05 energy =      -5927.8163558930

  ----------------------------------- OT ---------------------------------------
  Minimizer      : DIIS                : direct inversion
                                         in the iterative subspace
                                         using   8 DIIS vectors
                                         safer DIIS on
  Preconditioner : FULL_KINETIC        : inversion of T + eS
  Precond_solver : DEFAULT
  stepsize       :    0.15000000                  energy_gap     :    0.00010000
  eps_taylor     :   0.10000E-15                  max_taylor     :             4
  ----------------------------------- OT ---------------------------------------

  Step     Update method      Time    Convergence         Total energy    Change
  ------------------------------------------------------------------------------
     1 OT DIIS     0.15E+00   37.9     0.00000109     -5927.8163617868 -5.89E-06
     2 OT DIIS     0.15E+00   16.1     0.00000343     -5927.8163620002 -2.13E-07
     3 OT DIIS     0.15E+00   16.2     0.00000100     -5927.8163637083 -1.71E-06

  *** SCF run converged in     3 steps ***


  Electronic density on regular grids:      -3474.0000000004       -0.0000000004
  Core density on regular grids:             3473.9999999952       -0.0000000048
  Total charge density on r-space grids:       -0.0000000052
  Total charge density g-space grids:          -0.0000000041

  Overlap energy of the core charge distribution:               0.00000032799697
  Self energy of the core charge distribution:             -13965.50565932552126
  Core Hamiltonian energy:                                   3144.44927193673357
  Hartree energy:                                            6203.23399243302083
  Exchange-correlation energy:                              -1307.52262068245795
  Dispersion energy:                                           -2.47134839809801

  Total energy:                                             -5927.81636370832621

  outer SCF iter =    7 RMS gradient =   0.10E-05 energy =      -5927.8163637083
  outer SCF loop converged in   7 iterations or  183 steps


 ENERGY| Total FORCE_EVAL ( QS ) energy (a.u.):            -5927.816364280253765


 --------  Informations at step =     0 ------------
  Optimization Method        =                 BFGS
  Total Energy               =     -5927.8163642803
  Used time                  =             3092.983
 ---------------------------------------------------

 --------------------------
 OPTIMIZATION STEP:      1
 --------------------------

 Number of electrons:                                                       3474
 Number of occupied orbitals:                                               1737
 Number of molecular orbitals:                                              1737

 Number of orbital functions:                                               7524
 Number of independent orbital functions:                                   7524

 Extrapolation method: ASPC


 SCF WAVEFUNCTION OPTIMIZATION

  ----------------------------------- OT ---------------------------------------
  Minimizer      : DIIS                : direct inversion
                                         in the iterative subspace
                                         using   8 DIIS vectors
                                         safer DIIS on
  Preconditioner : FULL_KINETIC        : inversion of T + eS
  Precond_solver : DEFAULT
  stepsize       :    0.15000000                  energy_gap     :    0.00010000
  eps_taylor     :   0.10000E-15                  max_taylor     :             4
  ----------------------------------- OT ---------------------------------------

  Step     Update method      Time    Convergence         Total energy    Change
  ------------------------------------------------------------------------------
     1 OT DIIS     0.15E+00   15.9     0.00003448     -5927.8206466040 -5.93E+03
     2 OT DIIS     0.15E+00   16.4     0.00002273     -5927.8224892130 -1.84E-03
     3 OT DIIS     0.15E+00   16.3     0.00003109     -5927.8235625964 -1.07E-03
     4 OT DIIS     0.15E+00   16.4     0.00003122     -5927.8238335178 -2.71E-04
     5 OT DIIS     0.15E+00   16.4     0.00002043     -5927.8241989073 -3.65E-04
     6 OT DIIS     0.15E+00   16.3     0.00002047     -5927.8244658189 -2.67E-04
     7 OT DIIS     0.15E+00   16.3     0.00001005     -5927.8247038995 -2.38E-04
     8 OT DIIS     0.15E+00   16.4     0.00001145     -5927.8248819418 -1.78E-04
     9 OT DIIS     0.15E+00   16.4     0.00000982     -5927.8249546635 -7.27E-05
    10 OT DIIS     0.15E+00   16.4     0.00000820     -5927.8250277381 -7.31E-05
    11 OT DIIS     0.15E+00   16.4     0.00000764     -5927.8250583237 -3.06E-05
    12 OT DIIS     0.15E+00   16.4     0.00000532     -5927.8251090111 -5.07E-05
    13 OT DIIS     0.15E+00   16.4     0.00000527     -5927.8251484779 -3.95E-05
    14 OT DIIS     0.15E+00   16.4     0.00000550     -5927.8251728842 -2.44E-05
    15 OT DIIS     0.15E+00   16.4     0.00000405     -5927.8252060666 -3.32E-05
    16 OT DIIS     0.15E+00   16.4     0.00000369     -5927.8252255705 -1.95E-05
    17 OT DIIS     0.15E+00   16.4     0.00000304     -5927.8252484659 -2.29E-05
    18 OT DIIS     0.15E+00   16.4     0.00000357     -5927.8252651791 -1.67E-05
    19 OT DIIS     0.15E+00   16.4     0.00000305     -5927.8252782668 -1.31E-05
    20 OT DIIS     0.15E+00   16.4     0.00000295     -5927.8252912632 -1.30E-05
    21 OT DIIS     0.15E+00   16.3     0.00000260     -5927.8253009921 -9.73E-06
    22 OT DIIS     0.15E+00   16.4     0.00000236     -5927.8253104863 -9.49E-06
    23 OT DIIS     0.15E+00   16.3     0.00000224     -5927.8253164498 -5.96E-06
    24 OT DIIS     0.15E+00   16.4     0.00000190     -5927.8253241153 -7.67E-06
    25 OT DIIS     0.15E+00   16.3     0.00000184     -5927.8253293113 -5.20E-06
    26 OT DIIS     0.15E+00   16.4     0.00000161     -5927.8253361728 -6.86E-06
    27 OT DIIS     0.15E+00   16.4     0.00000182     -5927.8253415500 -5.38E-06
    28 OT DIIS     0.15E+00   16.3     0.00000154     -5927.8253456790 -4.13E-06
    29 OT DIIS     0.15E+00   16.3     0.00000149     -5927.8253505042 -4.83E-06
    30 OT DIIS     0.15E+00   16.4     0.00000142     -5927.8253538078 -3.30E-06

  Leaving inner SCF loop after reaching    30 steps.


  Electronic density on regular grids:      -3474.0000000021       -0.0000000021
  Core density on regular grids:             3473.9999999952       -0.0000000048
  Total charge density on r-space grids:       -0.0000000069
  Total charge density g-space grids:          -0.0000000059

  Overlap energy of the core charge distribution:               0.00000032593061
  Self energy of the core charge distribution:             -13965.50565932552126
  Core Hamiltonian energy:                                   3144.22471611453284
  Hartree energy:                                            6203.37965536725551
  Exchange-correlation energy:                              -1307.45252466180818
  Dispersion energy:                                           -2.47154162818252

  Total energy:                                             -5927.82535380779427

  outer SCF iter =    1 RMS gradient =   0.14E-05 energy =      -5927.8253538078

  ----------------------------------- OT ---------------------------------------
  Minimizer      : DIIS                : direct inversion
                                         in the iterative subspace
                                         using   8 DIIS vectors
                                         safer DIIS on
  Preconditioner : FULL_KINETIC        : inversion of T + eS
  Precond_solver : DEFAULT
  stepsize       :    0.15000000                  energy_gap     :    0.00010000
  eps_taylor     :   0.10000E-15                  max_taylor     :             4
  ----------------------------------- OT ---------------------------------------

  Step     Update method      Time    Convergence         Total energy    Change
  ------------------------------------------------------------------------------
     1 OT DIIS     0.15E+00   36.6     0.00000133     -5927.8253578507 -4.04E-06
     2 OT DIIS     0.15E+00   16.1     0.00000478     -5927.8253572443  6.06E-07
     3 OT DIIS     0.15E+00   16.2     0.00000121     -5927.8253603897 -3.15E-06
     4 OT DIIS     0.15E+00   16.2     0.00000112     -5927.8253611143 -7.25E-07
     5 OT DIIS     0.15E+00   16.2     0.00000118     -5927.8253632953 -2.18E-06
     6 OT DIIS     0.15E+00   16.1     0.00000181     -5927.8253728260 -9.53E-06
     7 OT DIIS     0.15E+00   16.2     0.00000085     -5927.8253760598 -3.23E-06

  *** SCF run converged in     7 steps ***


  Electronic density on regular grids:      -3474.0000000013       -0.0000000013
  Core density on regular grids:             3473.9999999952       -0.0000000048
  Total charge density on r-space grids:       -0.0000000061
  Total charge density g-space grids:          -0.0000000051

  Overlap energy of the core charge distribution:               0.00000032593061
  Self energy of the core charge distribution:             -13965.50565932552126
  Core Hamiltonian energy:                                   3144.22406950862569
  Hartree energy:                                            6203.37982813837880
  Exchange-correlation energy:                              -1307.45207307905957
  Dispersion energy:                                           -2.47154162818252

  Total energy:                                             -5927.82537605982816

  outer SCF iter =    2 RMS gradient =   0.85E-06 energy =      -5927.8253760598
  outer SCF loop converged in   2 iterations or   37 steps


 ENERGY| Total FORCE_EVAL ( QS ) energy (a.u.):            -5927.825377117868811


 --------  Informations at step =     1 ------------
  Optimization Method        =                 BFGS
  Total Energy               =     -5927.8253771179
  Real energy change         =        -0.0090128376
  Predicted change in energy =        -0.0059354082
  Scaling factor             =         0.0000000000
  Step size                  =         0.1027525018
  Trust radius               =         0.4724315332
  Decrease in energy         =                  YES
  Used time                  =              636.882

  Convergence check :
  Max. step size             =         0.1027525018
  Conv. limit for step size  =         0.0030000000
  Convergence in step size   =                   NO
  RMS step size              =         0.0063001891
  Conv. limit for RMS step   =         0.0015000000
  Convergence in RMS step    =                   NO
  Max. gradient              =         0.0186802253
  Conv. limit for gradients  =         0.0004500000
  Conv. for gradients        =                   NO
  RMS gradient               =         0.0008347367
  Conv. limit for RMS grad.  =         0.0003000000
  Conv. for gradients        =                   NO
 ---------------------------------------------------

 --------------------------
 OPTIMIZATION STEP:      2
 --------------------------

 Number of electrons:                                                       3474
 Number of occupied orbitals:                                               1737
 Number of molecular orbitals:                                              1737

 Number of orbital functions:                                               7524
 Number of independent orbital functions:                                   7524

 Extrapolation method: ASPC


 SCF WAVEFUNCTION OPTIMIZATION

  ----------------------------------- OT ---------------------------------------
  Minimizer      : DIIS                : direct inversion
                                         in the iterative subspace
                                         using   8 DIIS vectors
                                         safer DIIS on
  Preconditioner : FULL_KINETIC        : inversion of T + eS
  Precond_solver : DEFAULT
  stepsize       :    0.15000000                  energy_gap     :    0.00010000
  eps_taylor     :   0.10000E-15                  max_taylor     :             4
  ----------------------------------- OT ---------------------------------------

  Step     Update method      Time    Convergence         Total energy    Change
  ------------------------------------------------------------------------------
     1 OT DIIS     0.15E+00   15.9     0.00002036     -5927.8306006033 -5.93E+03
     2 OT DIIS     0.15E+00   16.3     0.00001518     -5927.8312441362 -6.44E-04
     3 OT DIIS     0.15E+00   16.4     0.00004527     -5927.8313339620 -8.98E-05
     4 OT DIIS     0.15E+00   16.4     0.00001559     -5927.8317346579 -4.01E-04
     5 OT DIIS     0.15E+00   16.4     0.00001672     -5927.8318529854 -1.18E-04
     6 OT DIIS     0.15E+00   16.4     0.00001010     -5927.8319826565 -1.30E-04
     7 OT DIIS     0.15E+00   16.4     0.00000967     -5927.8321224787 -1.40E-04
     8 OT DIIS     0.15E+00   16.4     0.00000996     -5927.8321849190 -6.24E-05
     9 OT DIIS     0.15E+00   16.5     0.00000783     -5927.8322570623 -7.21E-05
    10 OT DIIS     0.15E+00   16.5     0.00000716     -5927.8323107596 -5.37E-05
    11 OT DIIS     0.15E+00   16.5     0.00000480     -5927.8323424991 -3.17E-05
    12 OT DIIS     0.15E+00   16.5     0.00000420     -5927.8323862268 -4.37E-05
    13 OT DIIS     0.15E+00   16.4     0.00000514     -5927.8324103672 -2.41E-05
    14 OT DIIS     0.15E+00   16.5     0.00000383     -5927.8324316143 -2.12E-05
    15 OT DIIS     0.15E+00   16.5     0.00000374     -5927.8324559504 -2.43E-05
    16 OT DIIS     0.15E+00   16.5     0.00000317     -5927.8324757706 -1.98E-05
    17 OT DIIS     0.15E+00   16.5     0.00000316     -5927.8324950304 -1.93E-05
    18 OT DIIS     0.15E+00   16.4     0.00000309     -5927.8325085182 -1.35E-05
    19 OT DIIS     0.15E+00   16.4     0.00000264     -5927.8325255604 -1.70E-05
    20 OT DIIS     0.15E+00   16.4     0.00000255     -5927.8325340914 -8.53E-06
    21 OT DIIS     0.15E+00   16.3     0.00000223     -5927.8325484100 -1.43E-05
    22 OT DIIS     0.15E+00   16.4     0.00000248     -5927.8325579327 -9.52E-06
    23 OT DIIS     0.15E+00   16.4     0.00000197     -5927.8325659248 -7.99E-06
    24 OT DIIS     0.15E+00   16.4     0.00000198     -5927.8325746056 -8.68E-06
    25 OT DIIS     0.15E+00   16.4     0.00000185     -5927.8325812443 -6.64E-06
    26 OT DIIS     0.15E+00   16.4     0.00000175     -5927.8325879321 -6.69E-06
    27 OT DIIS     0.15E+00   16.4     0.00000170     -5927.8325938639 -5.93E-06
    28 OT DIIS     0.15E+00   16.5     0.00000154     -5927.8326010211 -7.16E-06
    29 OT DIIS     0.15E+00   16.4     0.00000159     -5927.8326052674 -4.25E-06
    30 OT DIIS     0.15E+00   16.5     0.00000137     -5927.8326115532 -6.29E-06

  Leaving inner SCF loop after reaching    30 steps.


  Electronic density on regular grids:      -3474.0000000015       -0.0000000015
  Core density on regular grids:             3473.9999999952       -0.0000000048
  Total charge density on r-space grids:       -0.0000000063
  Total charge density g-space grids:          -0.0000000053

  Overlap energy of the core charge distribution:               0.00000032482836
  Self energy of the core charge distribution:             -13965.50565932552126
  Core Hamiltonian energy:                                   3144.00870616614884
  Hartree energy:                                            6203.52163638180718
  Exchange-correlation energy:                              -1307.38557173030722
  Dispersion energy:                                           -2.47172337012483

  Total energy:                                             -5927.83261155316904

  outer SCF iter =    1 RMS gradient =   0.14E-05 energy =      -5927.8326115532

  ----------------------------------- OT ---------------------------------------
  Minimizer      : DIIS                : direct inversion
                                         in the iterative subspace
                                         using   8 DIIS vectors
                                         safer DIIS on
  Preconditioner : FULL_KINETIC        : inversion of T + eS
  Precond_solver : DEFAULT
  stepsize       :    0.15000000                  energy_gap     :    0.00010000
  eps_taylor     :   0.10000E-15                  max_taylor     :             4
  ----------------------------------- OT ---------------------------------------

  Step     Update method      Time    Convergence         Total energy    Change
  ------------------------------------------------------------------------------
     1 OT DIIS     0.15E+00   36.7     0.00000148     -5927.8326163236 -4.77E-06
     2 OT DIIS     0.15E+00   16.2     0.00000629     -5927.8326139233  2.40E-06
     3 OT DIIS     0.15E+00   16.2     0.00000127     -5927.8326190725 -5.15E-06
     4 OT DIIS     0.15E+00   16.2     0.00000116     -5927.8326197615 -6.89E-07
     5 OT DIIS     0.15E+00   16.2     0.00000124     -5927.8326227342 -2.97E-06
     6 OT DIIS     0.15E+00   16.2     0.00000214     -5927.8326323209 -9.59E-06
     7 OT DIIS     0.15E+00   16.2     0.00000088     -5927.8326371063 -4.79E-06

  *** SCF run converged in     7 steps ***


  Electronic density on regular grids:      -3474.0000000009       -0.0000000009
  Core density on regular grids:             3473.9999999952       -0.0000000048
  Total charge density on r-space grids:       -0.0000000057
  Total charge density g-space grids:          -0.0000000047

  Overlap energy of the core charge distribution:               0.00000032482836
  Self energy of the core charge distribution:             -13965.50565932552126
  Core Hamiltonian energy:                                   3144.00738364765130
  Hartree energy:                                            6203.52240361073473
  Exchange-correlation energy:                              -1307.38504199389513
  Dispersion energy:                                           -2.47172337012483

  Total energy:                                             -5927.83263710632673

  outer SCF iter =    2 RMS gradient =   0.88E-06 energy =      -5927.8326371063
  outer SCF loop converged in   2 iterations or   37 steps


 ENERGY| Total FORCE_EVAL ( QS ) energy (a.u.):            -5927.832638179677815


 --------  Informations at step =     2 ------------
  Optimization Method        =                 BFGS
  Total Energy               =     -5927.8326381797
  Real energy change         =        -0.0072610618
  Predicted change in energy =        -0.0051519420
  Scaling factor             =         0.0000000000
  Step size                  =         0.1443561868
  Trust radius               =         0.4724315332
  Decrease in energy         =                  YES
  Used time                  =              639.265

  Convergence check :
  Max. step size             =         0.1443561868
  Conv. limit for step size  =         0.0030000000
  Convergence in step size   =                   NO
  RMS step size              =         0.0091931291
  Conv. limit for RMS step   =         0.0015000000
  Convergence in RMS step    =                   NO
  Max. gradient              =         0.0157136363
  Conv. limit for gradients  =         0.0004500000
  Conv. for gradients        =                   NO
  RMS gradient               =         0.0007229850
  Conv. limit for RMS grad.  =         0.0003000000
  Conv. for gradients        =                   NO
 ---------------------------------------------------

 --------------------------
 OPTIMIZATION STEP:      3
 --------------------------

 Number of electrons:                                                       3474
 Number of occupied orbitals:                                               1737
 Number of molecular orbitals:                                              1737

 Number of orbital functions:                                               7524
 Number of independent orbital functions:                                   7524

 Extrapolation method: ASPC


 SCF WAVEFUNCTION OPTIMIZATION

  ----------------------------------- OT ---------------------------------------
  Minimizer      : DIIS                : direct inversion
                                         in the iterative subspace
                                         using   8 DIIS vectors
                                         safer DIIS on
  Preconditioner : FULL_KINETIC        : inversion of T + eS
  Precond_solver : DEFAULT
  stepsize       :    0.15000000                  energy_gap     :    0.00010000
  eps_taylor     :   0.10000E-15                  max_taylor     :             4
  ----------------------------------- OT ---------------------------------------

  Step     Update method      Time    Convergence         Total energy    Change
  ------------------------------------------------------------------------------
     1 OT DIIS     0.15E+00   15.9     0.00002003     -5927.8368590594 -5.93E+03
     2 OT DIIS     0.15E+00   16.3     0.00001374     -5927.8374480017 -5.89E-04
     3 OT DIIS     0.15E+00   16.3     0.00003353     -5927.8375746780 -1.27E-04
     4 OT DIIS     0.15E+00   16.3     0.00001715     -5927.8377930380 -2.18E-04
     5 OT DIIS     0.15E+00   16.3     0.00001895     -5927.8378800515 -8.70E-05
     6 OT DIIS     0.15E+00   16.3     0.00001037     -5927.8379919925 -1.12E-04
     7 OT DIIS     0.15E+00   16.4     0.00000788     -5927.8380878621 -9.59E-05
     8 OT DIIS     0.15E+00   16.4     0.00000936     -5927.8381267165 -3.89E-05
     9 OT DIIS     0.15E+00   16.4     0.00000723     -5927.8381699034 -4.32E-05
    10 OT DIIS     0.15E+00   16.5     0.00000646     -5927.8381882024 -1.83E-05
    11 OT DIIS     0.15E+00   16.4     0.00000363     -5927.8382134685 -2.53E-05
    12 OT DIIS     0.15E+00   16.4     0.00000341     -5927.8382329465 -1.95E-05
    13 OT DIIS     0.15E+00   16.4     0.00000378     -5927.8382453380 -1.24E-05
    14 OT DIIS     0.15E+00   16.4     0.00000311     -5927.8382549070 -9.57E-06
    15 OT DIIS     0.15E+00   16.4     0.00000292     -5927.8382646463 -9.74E-06
    16 OT DIIS     0.15E+00   16.4     0.00000256     -5927.8382730362 -8.39E-06
    17 OT DIIS     0.15E+00   16.4     0.00000268     -5927.8382800145 -6.98E-06
    18 OT DIIS     0.15E+00   16.4     0.00000239     -5927.8382859223 -5.91E-06
    19 OT DIIS     0.15E+00   16.4     0.00000212     -5927.8382924437 -6.52E-06
    20 OT DIIS     0.15E+00   16.4     0.00000189     -5927.8382978009 -5.36E-06
    21 OT DIIS     0.15E+00   16.2     0.00000181     -5927.8383023169 -4.52E-06
    22 OT DIIS     0.15E+00   16.3     0.00000161     -5927.8383066039 -4.29E-06
    23 OT DIIS     0.15E+00   16.4     0.00000168     -5927.8383104800 -3.88E-06
    24 OT DIIS     0.15E+00   16.3     0.00000166     -5927.8383129660 -2.49E-06
    25 OT DIIS     0.15E+00   16.3     0.00000156     -5927.8383158829 -2.92E-06
    26 OT DIIS     0.15E+00   16.3     0.00000144     -5927.8383182849 -2.40E-06
    27 OT DIIS     0.15E+00   16.4     0.00000149     -5927.8383203426 -2.06E-06
    28 OT DIIS     0.15E+00   16.3     0.00000138     -5927.8383219334 -1.59E-06
    29 OT DIIS     0.15E+00   16.4     0.00000135     -5927.8383235237 -1.59E-06
    30 OT DIIS     0.15E+00   16.4     0.00000115     -5927.8383252528 -1.73E-06

  Leaving inner SCF loop after reaching    30 steps.


  Electronic density on regular grids:      -3474.0000000005       -0.0000000005
  Core density on regular grids:             3473.9999999952       -0.0000000048
  Total charge density on r-space grids:       -0.0000000053
  Total charge density g-space grids:          -0.0000000042

  Overlap energy of the core charge distribution:               0.00000032476534
  Self energy of the core charge distribution:             -13965.50565932552126
  Core Hamiltonian energy:                                   3143.89166835145716
  Hartree energy:                                            6203.60105930473856
  Exchange-correlation energy:                              -1307.35363008344075
  Dispersion energy:                                           -2.47176382480382

  Total energy:                                             -5927.83832525280377

  outer SCF iter =    1 RMS gradient =   0.12E-05 energy =      -5927.8383252528

  ----------------------------------- OT ---------------------------------------
  Minimizer      : DIIS                : direct inversion
                                         in the iterative subspace
                                         using   8 DIIS vectors
                                         safer DIIS on
  Preconditioner : FULL_KINETIC        : inversion of T + eS
  Precond_solver : DEFAULT
  stepsize       :    0.15000000                  energy_gap     :    0.00010000
  eps_taylor     :   0.10000E-15                  max_taylor     :             4
  ----------------------------------- OT ---------------------------------------

  Step     Update method      Time    Convergence         Total energy    Change
  ------------------------------------------------------------------------------
     1 OT DIIS     0.15E+00   36.5     0.00000122     -5927.8383263437 -1.09E-06
     2 OT DIIS     0.15E+00   16.1     0.00000559     -5927.8383231166  3.23E-06
     3 OT DIIS     0.15E+00   16.1     0.00000121     -5927.8383274739 -4.36E-06
     4 OT DIIS     0.15E+00   16.1     0.00000076     -5927.8383277850 -3.11E-07

  *** SCF run converged in     4 steps ***


  Electronic density on regular grids:      -3474.0000000004       -0.0000000004
  Core density on regular grids:             3473.9999999952       -0.0000000048
  Total charge density on r-space grids:       -0.0000000053
  Total charge density g-space grids:          -0.0000000042

  Overlap energy of the core charge distribution:               0.00000032476534
  Self energy of the core charge distribution:             -13965.50565932552126
  Core Hamiltonian energy:                                   3143.89163243897610
  Hartree energy:                                            6203.60110156242081
  Exchange-correlation energy:                              -1307.35363896086801
  Dispersion energy:                                           -2.47176382480382

  Total energy:                                             -5927.83832778503074

  outer SCF iter =    2 RMS gradient =   0.76E-06 energy =      -5927.8383277850
  outer SCF loop converged in   2 iterations or   34 steps


 ENERGY| Total FORCE_EVAL ( QS ) energy (a.u.):            -5927.838328351873315


 --------  Informations at step =     3 ------------
  Optimization Method        =                 BFGS
  Total Energy               =     -5927.8383283519
  Real energy change         =        -0.0056901722
  Predicted change in energy =        -0.0034911208
  Scaling factor             =         0.0000000000
  Step size                  =         0.1531094838
  Trust radius               =         0.4724315332
  Decrease in energy         =                  YES
  Used time                  =              589.850

  Convergence check :
  Max. step size             =         0.1531094838
  Conv. limit for step size  =         0.0030000000
  Convergence in step size   =                   NO
  RMS step size              =         0.0097481104
  Conv. limit for RMS step   =         0.0015000000
  Convergence in RMS step    =                   NO
  Max. gradient              =         0.0241141338
  Conv. limit for gradients  =         0.0004500000
  Conv. for gradients        =                   NO
  RMS gradient               =         0.0008890521
  Conv. limit for RMS grad.  =         0.0003000000
  Conv. for gradients        =                   NO
 ---------------------------------------------------

 --------------------------
 OPTIMIZATION STEP:      4
 --------------------------

 Number of electrons:                                                       3474
 Number of occupied orbitals:                                               1737
 Number of molecular orbitals:                                              1737

 Number of orbital functions:                                               7524
 Number of independent orbital functions:                                   7524

 Extrapolation method: ASPC


 SCF WAVEFUNCTION OPTIMIZATION

  ----------------------------------- OT ---------------------------------------
  Minimizer      : DIIS                : direct inversion
                                         in the iterative subspace
                                         using   8 DIIS vectors
                                         safer DIIS on
  Preconditioner : FULL_KINETIC        : inversion of T + eS
  Precond_solver : DEFAULT
  stepsize       :    0.15000000                  energy_gap     :    0.00010000
  eps_taylor     :   0.10000E-15                  max_taylor     :             4
  ----------------------------------- OT ---------------------------------------

  Step     Update method      Time    Convergence         Total energy    Change
  ------------------------------------------------------------------------------
     1 OT DIIS     0.15E+00   15.8     0.00004887     -5927.8338674095 -5.93E+03
     2 OT DIIS     0.15E+00   16.3     0.00003545     -5927.8376383824 -3.77E-03
     3 OT DIIS     0.15E+00   16.3     0.00011071     -5927.8385836049 -9.45E-04
     4 OT DIIS     0.15E+00   16.3     0.00003434     -5927.8406682678 -2.08E-03
     5 OT DIIS     0.15E+00   16.3     0.00003128     -5927.8415704526 -9.02E-04
     6 OT DIIS     0.15E+00   16.3     0.00003034     -5927.8420952460 -5.25E-04
     7 OT DIIS     0.15E+00   16.3     0.00001789     -5927.8427020164 -6.07E-04
     8 OT DIIS     0.15E+00   16.4     0.00002282     -5927.8430032426 -3.01E-04
     9 OT DIIS     0.15E+00   16.4     0.00001816     -5927.8432362848 -2.33E-04
    10 OT DIIS     0.15E+00   16.4     0.00001423     -5927.8434568403 -2.21E-04
    11 OT DIIS     0.15E+00   16.4     0.00001097     -5927.8435627677 -1.06E-04
    12 OT DIIS     0.15E+00   16.4     0.00000987     -5927.8437124143 -1.50E-04
    13 OT DIIS     0.15E+00   16.3     0.00001059     -5927.8438031158 -9.07E-05
    14 OT DIIS     0.15E+00   16.4     0.00000763     -5927.8438805020 -7.74E-05
    15 OT DIIS     0.15E+00   16.3     0.00000645     -5927.8439743521 -9.39E-05
    16 OT DIIS     0.15E+00   16.3     0.00000733     -5927.8440434694 -6.91E-05
    17 OT DIIS     0.15E+00   16.4     0.00000659     -5927.8440924484 -4.90E-05
    18 OT DIIS     0.15E+00   16.3     0.00000674     -5927.8441424599 -5.00E-05
    19 OT DIIS     0.15E+00   16.3     0.00000554     -5927.8441873805 -4.49E-05
    20 OT DIIS     0.15E+00   16.3     0.00000553     -5927.8442252476 -3.79E-05
    21 OT DIIS     0.15E+00   16.3     0.00000433     -5927.8442566009 -3.14E-05
    22 OT DIIS     0.15E+00   16.4     0.00000401     -5927.8442923828 -3.58E-05
    23 OT DIIS     0.15E+00   16.4     0.00000380     -5927.8443161016 -2.37E-05
    24 OT DIIS     0.15E+00   16.4     0.00000396     -5927.8443381181 -2.20E-05
    25 OT DIIS     0.15E+00   16.4     0.00000390     -5927.8443555277 -1.74E-05
    26 OT DIIS     0.15E+00   16.4     0.00000307     -5927.8443728407 -1.73E-05
    27 OT DIIS     0.15E+00   16.4     0.00000354     -5927.8443868892 -1.40E-05
    28 OT DIIS     0.15E+00   16.4     0.00000310     -5927.8444004744 -1.36E-05
    29 OT DIIS     0.15E+00   16.4     0.00000297     -5927.8444109764 -1.05E-05
    30 OT DIIS     0.15E+00   16.4     0.00000275     -5927.8444223987 -1.14E-05

  Leaving inner SCF loop after reaching    30 steps.


  Electronic density on regular grids:      -3474.0000000160       -0.0000000160
  Core density on regular grids:             3473.9999999952       -0.0000000048
  Total charge density on r-space grids:       -0.0000000208
  Total charge density g-space grids:          -0.0000000199

  Overlap energy of the core charge distribution:               0.00000032709542
  Self energy of the core charge distribution:             -13965.50565932552126
  Core Hamiltonian energy:                                   3143.83431659617690
  Hartree energy:                                            6203.64905588440615
  Exchange-correlation energy:                              -1307.35049929696947
  Dispersion energy:                                           -2.47163658390640

  Total energy:                                             -5927.84442239871805

  outer SCF iter =    1 RMS gradient =   0.28E-05 energy =      -5927.8444223987

  ----------------------------------- OT ---------------------------------------
  Minimizer      : DIIS                : direct inversion
                                         in the iterative subspace
                                         using   8 DIIS vectors
                                         safer DIIS on
  Preconditioner : FULL_KINETIC        : inversion of T + eS
  Precond_solver : DEFAULT
  stepsize       :    0.15000000                  energy_gap     :    0.00010000
  eps_taylor     :   0.10000E-15                  max_taylor     :             4
  ----------------------------------- OT ---------------------------------------

  Step     Update method      Time    Convergence         Total energy    Change
  ------------------------------------------------------------------------------
     1 OT DIIS     0.15E+00   36.5     0.00000266     -5927.8444325589 -1.02E-05
     2 OT DIIS     0.15E+00   16.1     0.00001223     -5927.8444212637  1.13E-05
     3 OT DIIS     0.15E+00   16.1     0.00000254     -5927.8444400254 -1.88E-05
     4 OT DIIS     0.15E+00   16.1     0.00000198     -5927.8444419359 -1.91E-06
     5 OT DIIS     0.15E+00   16.1     0.00000188     -5927.8444466997 -4.76E-06
     6 OT DIIS     0.15E+00   16.2     0.00000361     -5927.8444662435 -1.95E-05
     7 OT DIIS     0.15E+00   16.2     0.00000205     -5927.8444813828 -1.51E-05
     8 OT DIIS     0.15E+00   16.1     0.00000132     -5927.8444852783 -3.90E-06
     9 OT DIIS     0.15E+00   16.2     0.00000111     -5927.8444871685 -1.89E-06
    10 OT DIIS     0.15E+00   16.2     0.00000109     -5927.8444904318 -3.26E-06
    11 OT DIIS     0.15E+00   16.0     0.00000121     -5927.8444920871 -1.66E-06
    12 OT DIIS     0.15E+00   16.2     0.00000139     -5927.8444960124 -3.93E-06
    13 OT DIIS     0.15E+00   16.2     0.00000131     -5927.8445067311 -1.07E-05
    14 OT DIIS     0.15E+00   16.2     0.00000110     -5927.8445098748 -3.14E-06
    15 OT DIIS     0.15E+00   16.2     0.00000101     -5927.8445132060 -3.33E-06
    16 OT DIIS     0.15E+00   16.4     0.00000119     -5927.8445152865 -2.08E-06
    17 OT DIIS     0.15E+00   16.3     0.00000106     -5927.8445173329 -2.05E-06
    18 OT DIIS     0.15E+00   16.4     0.00000093     -5927.8445192987 -1.97E-06

  *** SCF run converged in    18 steps ***


  Electronic density on regular grids:      -3474.0000000000        0.0000000000
  Core density on regular grids:             3473.9999999952       -0.0000000048
  Total charge density on r-space grids:       -0.0000000048
  Total charge density g-space grids:          -0.0000000037

  Overlap energy of the core charge distribution:               0.00000032709542
  Self energy of the core charge distribution:             -13965.50565932552126
  Core Hamiltonian energy:                                   3143.83117608049361
  Hartree energy:                                            6203.65122689495092
  Exchange-correlation energy:                              -1307.34962669181778
  Dispersion energy:                                           -2.47163658390640

  Total energy:                                             -5927.84451929870374

  outer SCF iter =    2 RMS gradient =   0.93E-06 energy =      -5927.8445192987
  outer SCF loop converged in   2 iterations or   48 steps


 ENERGY| Total FORCE_EVAL ( QS ) energy (a.u.):            -5927.844522654600041


 --------  Informations at step =     4 ------------
  Optimization Method        =                 BFGS
  Total Energy               =     -5927.8445226546
  Real energy change         =        -0.0061943027
  Predicted change in energy =        -0.0075110289
  Scaling factor             =         0.0000000000
  Step size                  =         0.3509104526
  Trust radius               =         0.4724315332
  Decrease in energy         =                  YES
  Used time                  =              820.028

  Convergence check :
  Max. step size             =         0.3509104526
  Conv. limit for step size  =         0.0030000000
  Convergence in step size   =                   NO
  RMS step size              =         0.0230363595
  Conv. limit for RMS step   =         0.0015000000
  Convergence in RMS step    =                   NO
  Max. gradient              =         0.0287234551
  Conv. limit for gradients  =         0.0004500000
  Conv. for gradients        =                   NO
  RMS gradient               =         0.0014066680
  Conv. limit for RMS grad.  =         0.0003000000
  Conv. for gradients        =                   NO
 ---------------------------------------------------

 --------------------------
 OPTIMIZATION STEP:      5
 --------------------------

 Number of electrons:                                                       3474
 Number of occupied orbitals:                                               1737
 Number of molecular orbitals:                                              1737

 Number of orbital functions:                                               7524
 Number of independent orbital functions:                                   7524

 Extrapolation method: ASPC


 SCF WAVEFUNCTION OPTIMIZATION

  ----------------------------------- OT ---------------------------------------
  Minimizer      : DIIS                : direct inversion
                                         in the iterative subspace
                                         using   8 DIIS vectors
                                         safer DIIS on
  Preconditioner : FULL_KINETIC        : inversion of T + eS
  Precond_solver : DEFAULT
  stepsize       :    0.15000000                  energy_gap     :    0.00010000
  eps_taylor     :   0.10000E-15                  max_taylor     :             4
  ----------------------------------- OT ---------------------------------------

  Step     Update method      Time    Convergence         Total energy    Change
  ------------------------------------------------------------------------------
     1 OT DIIS     0.15E+00   15.8     0.00015085     -5927.7732709292 -5.93E+03
     2 OT DIIS     0.15E+00   16.3     0.00010282     -5927.8068975638 -3.36E-02
     3 OT DIIS     0.15E+00   16.3     0.00035005     -5927.8097370104 -2.84E-03
     4 OT DIIS     0.15E+00   16.3     0.00010300     -5927.8267311868 -1.70E-02
     5 OT DIIS     0.15E+00   16.3     0.00008424     -5927.8341745041 -7.44E-03
     6 OT DIIS     0.15E+00   16.3     0.00009683     -5927.8382957898 -4.12E-03
     7 OT DIIS     0.15E+00   16.3     0.00005749     -5927.8424891014 -4.19E-03
     8 OT DIIS     0.15E+00   16.4     0.00007186     -5927.8441530915 -1.66E-03
     9 OT DIIS     0.15E+00   16.5     0.00005017     -5927.8459250290 -1.77E-03
    10 OT DIIS     0.15E+00   16.6     0.00003454     -5927.8474688732 -1.54E-03
    11 OT DIIS     0.15E+00   16.6     0.00003156     -5927.8482124376 -7.44E-04
    12 OT DIIS     0.15E+00   16.5     0.00003318     -5927.8490541975 -8.42E-04
    13 OT DIIS     0.15E+00   16.6     0.00002748     -5927.8496247206 -5.71E-04
    14 OT DIIS     0.15E+00   16.6     0.00002182     -5927.8500869470 -4.62E-04
    15 OT DIIS     0.15E+00   16.5     0.00002152     -5927.8505426299 -4.56E-04
    16 OT DIIS     0.15E+00   16.5     0.00002300     -5927.8508153627 -2.73E-04
    17 OT DIIS     0.15E+00   16.5     0.00001764     -5927.8511421870 -3.27E-04
    18 OT DIIS     0.15E+00   16.6     0.00002266     -5927.8513283602 -1.86E-04
    19 OT DIIS     0.15E+00   16.5     0.00001523     -5927.8515882290 -2.60E-04
    20 OT DIIS     0.15E+00   16.5     0.00001333     -5927.8518337416 -2.46E-04
    21 OT DIIS     0.15E+00   16.4     0.00001418     -5927.8519810501 -1.47E-04
    22 OT DIIS     0.15E+00   16.5     0.00001686     -5927.8520811651 -1.00E-04
    23 OT DIIS     0.15E+00   16.6     0.00001432     -5927.8521975412 -1.16E-04
    24 OT DIIS     0.15E+00   16.5     0.00001251     -5927.8522935541 -9.60E-05
    25 OT DIIS     0.15E+00   16.6     0.00001595     -5927.8523583119 -6.48E-05
    26 OT DIIS     0.15E+00   16.5     0.00001185     -5927.8524062507 -4.79E-05
    27 OT DIIS     0.15E+00   16.5     0.00001529     -5927.8524791547 -7.29E-05
    28 OT DIIS     0.15E+00   16.5     0.00001096     -5927.8525114327 -3.23E-05
    29 OT DIIS     0.15E+00   16.5     0.00000915     -5927.8525446463 -3.32E-05
    30 OT DIIS     0.15E+00   16.5     0.00000910     -5927.8525784722 -3.38E-05

  Leaving inner SCF loop after reaching    30 steps.


  Electronic density on regular grids:      -3473.9999999993        0.0000000007
  Core density on regular grids:             3473.9999999952       -0.0000000048
  Total charge density on r-space grids:       -0.0000000041
  Total charge density g-space grids:          -0.0000000031

  Overlap energy of the core charge distribution:               0.00000032664969
  Self energy of the core charge distribution:             -13965.50565932552126
  Core Hamiltonian energy:                                   3143.84743480400630
  Hartree energy:                                            6203.64170303886385
  Exchange-correlation energy:                              -1307.36451045680064
  Dispersion energy:                                           -2.47154685937081

  Total energy:                                             -5927.85257847217235

  outer SCF iter =    1 RMS gradient =   0.91E-05 energy =      -5927.8525784722

  ----------------------------------- OT ---------------------------------------
  Minimizer      : DIIS                : direct inversion
                                         in the iterative subspace
                                         using   8 DIIS vectors
                                         safer DIIS on
  Preconditioner : FULL_KINETIC        : inversion of T + eS
  Precond_solver : DEFAULT
  stepsize       :    0.15000000                  energy_gap     :    0.00010000
  eps_taylor     :   0.10000E-15                  max_taylor     :             4
  ----------------------------------- OT ---------------------------------------

  Step     Update method      Time    Convergence         Total energy    Change
  ------------------------------------------------------------------------------
     1 OT DIIS     0.15E+00   36.7     0.00000984     -5927.8526151671 -3.67E-05
     2 OT DIIS     0.15E+00   16.2     0.00005885     -5927.8522599653  3.55E-04
     3 OT DIIS     0.15E+00   16.1     0.00000712     -5927.8526734872 -4.14E-04
     4 OT DIIS     0.15E+00   16.1     0.00000557     -5927.8526893146 -1.58E-05
     5 OT DIIS     0.15E+00   16.2     0.00000497     -5927.8527106141 -2.13E-05
     6 OT DIIS     0.15E+00   16.3     0.00000927     -5927.8528188843 -1.08E-04
     7 OT DIIS     0.15E+00   16.3     0.00000577     -5927.8529652882 -1.46E-04
     8 OT DIIS     0.15E+00   16.3     0.00000393     -5927.8530466499 -8.14E-05
     9 OT DIIS     0.15E+00   16.4     0.00000342     -5927.8530703627 -2.37E-05
    10 OT DIIS     0.15E+00   16.4     0.00000339     -5927.8531072615 -3.69E-05
    11 OT DIIS     0.15E+00   16.3     0.00000347     -5927.8531238424 -1.66E-05
    12 OT DIIS     0.15E+00   16.3     0.00000421     -5927.8531543644 -3.05E-05
    13 OT DIIS     0.15E+00   16.4     0.00000444     -5927.8532401325 -8.58E-05
    14 OT DIIS     0.15E+00   16.4     0.00000356     -5927.8532637963 -2.37E-05
    15 OT DIIS     0.15E+00   16.3     0.00000290     -5927.8532927514 -2.90E-05
    16 OT DIIS     0.15E+00   16.3     0.00000254     -5927.8533099441 -1.72E-05
    17 OT DIIS     0.15E+00   16.4     0.00000326     -5927.8533164645 -6.52E-06
    18 OT DIIS     0.15E+00   16.4     0.00000223     -5927.8533250065 -8.54E-06
    19 OT DIIS     0.15E+00   16.4     0.00000240     -5927.8533337155 -8.71E-06
    20 OT DIIS     0.15E+00   16.4     0.00000197     -5927.8533510821 -1.74E-05
    21 OT DIIS     0.15E+00   16.4     0.00000181     -5927.8533627958 -1.17E-05
    22 OT DIIS     0.15E+00   16.3     0.00000184     -5927.8533704455 -7.65E-06
    23 OT DIIS     0.15E+00   16.4     0.00000185     -5927.8533747464 -4.30E-06
[...]
 flops     6 x    32 x    32            569327616       0.0%    100.0%      0.0%
 flops     6 x     6 x   416           1948617216       0.0%    100.0%      0.0%
 flops     6 x     6 x   425           1990774800       0.0%    100.0%      0.0%
 flops     6 x     6 x   448           4197021696       0.0%    100.0%      0.0%
 flops     6 x     9 x    13          21557762928       0.0%    100.0%      0.0%
 flops    13 x     9 x     6          21557762928       0.0%    100.0%      0.0%
 flops     6 x    32 x     6          29368645632       0.0%    100.0%      0.0%
 flops    13 x    32 x    32         118420144128       0.0%    100.0%      0.0%
 flops    13 x     6 x   416         235127033856       0.0%    100.0%      0.0%
 flops     6 x    13 x   416         235649900928       0.0%    100.0%      0.0%
 flops    13 x     6 x   425         240213916800       0.0%    100.0%      0.0%
 flops     6 x    13 x   425         240748095900       0.0%    100.0%      0.0%
 flops    13 x     6 x   448         506427457536       0.0%    100.0%      0.0%
 flops     6 x    13 x   448         507553632768       0.0%    100.0%      0.0%
 flops   416 x   416 x   416        2536397340672     100.0%      0.0%      0.0%
 flops   416 x   416 x   425        2591271321600     100.0%      0.0%      0.0%
 flops   416 x   425 x   416        2591271321600     100.0%      0.0%      0.0%
 flops   425 x   416 x   416        2591271321600     100.0%      0.0%      0.0%
 flops   416 x   425 x   425        2647332480000     100.0%      0.0%      0.0%
 flops   425 x   416 x   425        2647332480000     100.0%      0.0%      0.0%
 flops   425 x   425 x   416        2647332480000     100.0%      0.0%      0.0%
 flops   425 x   425 x   425        2704606500000     100.0%      0.0%      0.0%
 flops    13 x     9 x    13        3804754766904       0.0%    100.0%      0.0%
 flops     6 x    32 x    13        4139090482176       0.0%    100.0%      0.0%
 flops    13 x    32 x     6        4139090482176       0.0%    100.0%      0.0%
 flops   416 x   416 x   448        5463009656832     100.0%      0.0%      0.0%
 flops   416 x   448 x   416        5463009656832     100.0%      0.0%      0.0%
 flops   448 x   416 x   416        5463009656832     100.0%      0.0%      0.0%
 flops   416 x   425 x   448        5581199769600     100.0%      0.0%      0.0%
 flops   416 x   448 x   425        5581199769600     100.0%      0.0%      0.0%
 flops   425 x   416 x   448        5581199769600     100.0%      0.0%      0.0%
 flops   425 x   448 x   416        5581199769600     100.0%      0.0%      0.0%
 flops   448 x   416 x   425        5581199769600     100.0%      0.0%      0.0%
 flops   448 x   425 x   416        5581199769600     100.0%      0.0%      0.0%
 flops   425 x   425 x   448        5701946880000     100.0%      0.0%      0.0%
 flops   425 x   448 x   425        5701946880000     100.0%      0.0%      0.0%
 flops   448 x   425 x   425        5701946880000     100.0%      0.0%      0.0%
 flops   448 x   448 x   416       11766482337792     100.0%      0.0%      0.0%
 flops   416 x   448 x   448       11766482337792     100.0%      0.0%      0.0%
 flops   448 x   416 x   448       11766482337792     100.0%      0.0%      0.0%
 flops   448 x   448 x   425       12021045657600     100.0%      0.0%      0.0%
 flops   425 x   448 x   448       12021045657600     100.0%      0.0%      0.0%
 flops   448 x   425 x   448       12021045657600     100.0%      0.0%      0.0%
 flops   416 x   416 x  1878       15034461511680     100.0%      0.0%      0.0%
 flops   416 x   416 x  1884       15082494935040     100.0%      0.0%      0.0%
 flops   416 x   425 x  1878       15359726304000     100.0%      0.0%      0.0%
 flops   425 x   416 x  1878       15359726304000     100.0%      0.0%      0.0%
 flops   416 x   425 x  1884       15408798912000     100.0%      0.0%      0.0%
 flops   425 x   416 x  1884       15408798912000     100.0%      0.0%      0.0%
 flops   425 x   425 x  1878       15692028075000     100.0%      0.0%      0.0%
 flops   425 x   425 x  1884       15742162350000     100.0%      0.0%      0.0%
 flops  1878 x   416 x   416       18653652246528     100.0%      0.0%      0.0%
 flops  1884 x   416 x   416       18713248579584     100.0%      0.0%      0.0%
 flops  1878 x   416 x   425       19057216838400     100.0%      0.0%      0.0%
 flops  1878 x   425 x   416       19057216838400     100.0%      0.0%      0.0%
 flops  1884 x   416 x   425       19118102515200     100.0%      0.0%      0.0%
 flops  1884 x   425 x   416       19118102515200     100.0%      0.0%      0.0%
 flops  1878 x   425 x   425       19469512395000     100.0%      0.0%      0.0%
 flops  1884 x   425 x   425       19531715310000     100.0%      0.0%      0.0%
 flops   448 x   448 x   448       25343192727552     100.0%      0.0%      0.0%
 flops   416 x   448 x  1878       32381917102080     100.0%      0.0%      0.0%
 flops   448 x   416 x  1878       32381917102080     100.0%      0.0%      0.0%
 flops   416 x   448 x  1884       32485373706240     100.0%      0.0%      0.0%
 flops   448 x   416 x  1884       32485373706240     100.0%      0.0%      0.0%
 flops   425 x   448 x  1878       33082487424000     100.0%      0.0%      0.0%
 flops   448 x   425 x  1878       33082487424000     100.0%      0.0%      0.0%
 flops   425 x   448 x  1884       33188182272000     100.0%      0.0%      0.0%
 flops   448 x   425 x  1884       33188182272000     100.0%      0.0%      0.0%
 flops  1878 x   416 x  1878       36034032752640     100.0%      0.0%      0.0%
 flops  1878 x   416 x  1884       36149157457920     100.0%      0.0%      0.0%
 flops  1884 x   416 x  1878       36149157457920     100.0%      0.0%      0.0%
 flops  1884 x   416 x  1884       36264649973760     100.0%      0.0%      0.0%
 flops  1878 x   425 x  1878       36813615192000     100.0%      0.0%      0.0%
 flops  1878 x   425 x  1884       36931230576000     100.0%      0.0%      0.0%
 flops  1884 x   425 x  1878       36931230576000     100.0%      0.0%      0.0%
 flops  1884 x   425 x  1884       37049221728000     100.0%      0.0%      0.0%
 flops  1878 x   448 x   416       40177097146368     100.0%      0.0%      0.0%
 flops  1878 x   416 x   448       40177097146368     100.0%      0.0%      0.0%
 flops  1884 x   416 x   448       40305458479104     100.0%      0.0%      0.0%
 flops  1884 x   448 x   416       40305458479104     100.0%      0.0%      0.0%
 flops  1878 x   448 x   425       41046313190400     100.0%      0.0%      0.0%
 flops  1878 x   425 x   448       41046313190400     100.0%      0.0%      0.0%
 flops  1884 x   425 x   448       41177451571200     100.0%      0.0%      0.0%
 flops  1884 x   448 x   425       41177451571200     100.0%      0.0%      0.0%
 flops    13 x    13 x   416       41670871189376       0.0%    100.0%      0.0%
 flops    13 x    13 x   425       42572404460300       0.0%    100.0%      0.0%
 flops   448 x   448 x  1878       69745667604480     100.0%      0.0%      0.0%
 flops   448 x   448 x  1884       69968497213440     100.0%      0.0%      0.0%
 flops  1878 x   448 x  1878       77611762851840     100.0%      0.0%      0.0%
 flops  1878 x   448 x  1884       77859723755520     100.0%      0.0%      0.0%
 flops  1884 x   448 x  1878       77859723755520     100.0%      0.0%      0.0%
 flops  1884 x   448 x  1884       78108476866560     100.0%      0.0%      0.0%
 flops  1878 x   448 x   448       86535286161408     100.0%      0.0%      0.0%
 flops  1884 x   448 x   448       86811756724224     100.0%      0.0%      0.0%
 flops    13 x    13 x   448       89752645638656       0.0%    100.0%      0.0%
 flops    13 x    32 x    13      730512915245568       0.0%    100.0%      0.0%
 flops inhomo. stacks                           0       0.0%      0.0%      0.0%
 flops total                         2.883721E+15      68.1%     31.9%      0.0%
 flops max/rank                    191.151931E+12      67.1%     32.9%      0.0%
 matmuls inhomo. stacks                         0       0.0%      0.0%      0.0%
 matmuls total                        71715033506       0.0%    100.0%      0.0%
 number of processed stacks              77303875       3.9%     96.1%      0.0%
 average stack size                                     1.0     964.9       0.0
 marketing flops                     3.876422E+15
 -------------------------------------------------------------------------------
 # multiplications                          56541
 max memory usage/rank               2.022740E+09
 # max total images/rank                        1
 # max 3D layers                                1
 # MPI messages exchanged                 5427936
 MPI messages size (bytes):
  total size                        29.651758E+12
  min size                           0.000000E+00
  max size                          28.395648E+06
  average size                       5.462806E+06
 MPI breakdown and total messages size (bytes):
             size <=      128               18876                        0
       128 < size <=     8192                   0                        0
      8192 < size <=    32768                   0                        0
     32768 < size <=   131072                1716                190053864
    131072 < size <=  4194304             2379888            3590262148536
   4194304 < size <= 16777216             2762070           19796673632544
  16777216 < size                          265386            6268677343584
 -------------------------------------------------------------------------------

 MEMORY| Estimated peak process memory [MiB]                                1930

 -------------------------------------------------------------------------------
 -                                                                             -
 -                         MESSAGE PASSING PERFORMANCE                         -
 -                                                                             -
 -------------------------------------------------------------------------------

 ROUTINE             CALLS      AVE VOLUME [Bytes]
 MP_Group             1623
 MP_Bcast            21972                  20963.
 MP_Allreduce       367819                    248.
 MP_Sync                 4
 MP_Alltoall        239976               36584111.
 MP_SendRecv          5100                  25843.
 MP_ISendRecv       180750                 730080.
 MP_Wait           3029149
 MP_ISend          1001852                2342674.
 MP_IRecv          1001852                2347545.
 MP_Recv             13566                1459038.
 MP_Memory         2492688
 -------------------------------------------------------------------------------


 -------------------------------------------------------------------------------
 -                                                                             -
 -                           R E F E R E N C E S                               -
 -                                                                             -
 -------------------------------------------------------------------------------
 
 CP2K version 7.0 (Development Version), the CP2K developers group (2018).
 CP2K is freely available from https://www.cp2k.org/ .

 Schuett, Ole; Messmer, Peter; Hutter, Juerg; VandeVondele, Joost. 
 Electronic Structure Calculations on Graphics Processing Units, John Wiley & Sons, Ltd, 173-190 (2016). 
 GPU-Accelerated Sparse Matrix-Matrix Multiplication for Linear Scaling Density Functional Theory.
 http://dx.doi.org/10.1002/9781118670712.ch8


 Borstnik, U; VandeVondele, J; Weber, V; Hutter, J. 
 PARALLEL COMPUTING, 40 (5-6), 47-58 (2014). 
 Sparse matrix multiplication: The distributed block-compressed sparse
 row library.
 http://dx.doi.org/10.1016/j.parco.2014.03.012


 Hutter, J; Iannuzzi, M; Schiffmann, F; VandeVondele, J. 
 WILEY INTERDISCIPLINARY REVIEWS-COMPUTATIONAL MOLECULAR SCIENCE, 4 (1), 15-25 (2014). 
 CP2K: atomistic simulations of condensed matter systems.
 http://dx.doi.org/10.1002/wcms.1159


 Grimme, S; Ehrlich, S; Goerigk, L. 
 JOURNAL OF COMPUTATIONAL CHEMISTRY, 32, 1456 (2011). 
 Effect of the damping function in dispersion corrected density functional theory.
 http://dx.doi.org/10.1002/jcc.21759


 Grimme, S; Antony, J; Ehrlich, S; Krieg, H. 
 JOURNAL OF CHEMICAL PHYSICS, 132 (15), 154104 (2010). 
 A consistent and accurate ab initio parametrization of density
 functional dispersion correction (DFT-D) for the 94 elements H-Pu.
 http://dx.doi.org/10.1063/1.3382344


 VandeVondele, J; Hutter, J. 
 JOURNAL OF CHEMICAL PHYSICS, 127 (11), 114105 (2007). 
 Gaussian basis sets for accurate calculations on molecular systems in
 gas and condensed phases.
 http://dx.doi.org/10.1063/1.2770708


 Krack, M. 
 THEORETICAL CHEMISTRY ACCOUNTS, 114 (1-3), 145-152 (2005). 
 Pseudopotentials for H to Kr optimized for gradient-corrected
 exchange-correlation functionals.
 http://dx.doi.org/10.1007/s00214-005-0655-y


 VandeVondele, J; Krack, M; Mohamed, F; Parrinello, M; Chassaing, T;
 Hutter, J. COMPUTER PHYSICS COMMUNICATIONS, 167 (2), 103-128 (2005). 
 QUICKSTEP: Fast and accurate density functional calculations using a
 mixed Gaussian and plane waves approach.
 http://dx.doi.org/10.1016/j.cpc.2004.12.014


 Frigo, M; Johnson, SG. 
 PROCEEDINGS OF THE IEEE, 93 (2), 216-231 (2005). 
 The design and implementation of FFTW3.
 http://dx.doi.org/10.1109/JPROC.2004.840301


 Kolafa, J. 
 JOURNAL OF COMPUTATIONAL CHEMISTRY, 25 (3), 335-342 (2004). 
 Time-reversible always stable predictor-corrector method for molecular dynamics of polarizable molecules.
 http://dx.doi.org/10.1002/jcc.10385


 VandeVondele, J; Hutter, J. 
 JOURNAL OF CHEMICAL PHYSICS, 118 (10), 4365-4369 (2003). 
 An efficient orbital transformation method for electronic structure
 calculations.
 http://dx.doi.org/10.1063/1.1543154


 Hartwigsen, C; Goedecker, S; Hutter, J. 
 PHYSICAL REVIEW B, 58 (7), 3641-3662 (1998). 
 Relativistic separable dual-space Gaussian pseudopotentials from H to Rn.
 http://dx.doi.org/10.1103/PhysRevB.58.3641


 Lippert, G; Hutter, J; Parrinello, M. 
 MOLECULAR PHYSICS, 92 (3), 477-487 (1997). 
 A hybrid Gaussian and plane wave density functional scheme.
 http://dx.doi.org/10.1080/002689797170220


 Perdew, JP; Burke, K; Ernzerhof, M. 
 PHYSICAL REVIEW LETTERS, 77 (18), 3865-3868 (1996). 
 Generalized gradient approximation made simple.
 http://dx.doi.org/10.1103/PhysRevLett.77.3865


 Goedecker, S; Teter, M; Hutter, J. 
 PHYSICAL REVIEW B, 54 (3), 1703-1710 (1996). 
 Separable dual-space Gaussian pseudopotentials.
 http://dx.doi.org/10.1103/PhysRevB.54.1703


 -------------------------------------------------------------------------------
 -                                                                             -
 -                                T I M I N G                                  -
 -                                                                             -
 -------------------------------------------------------------------------------
 SUBROUTINE                       CALLS  ASD         SELF TIME        TOTAL TIME
                                MAXIMUM       AVERAGE  MAXIMUM  AVERAGE  MAXIMUM
 CP2K                                 1  1.0     0.10     0.13 51092.72 51092.84
 cp_geo_opt                           1  2.0     0.00     0.00 51090.60 51090.72
 geoopt_bfgs                          1  3.0     0.20     0.29 51090.60 51090.72
 cp_eval_at                          86  4.0     0.02     0.04 51041.14 51041.27
 qs_forces                           85  5.0     0.02     0.02 50797.08 50797.19
 qs_energies                         86  6.0     0.03     0.04 49789.27 49791.62
 scf_env_do_scf                      86  7.0     0.02     0.05 48810.71 48810.95
 scf_env_do_scf_inner_loop         2927  8.0     0.14     0.66 46816.67 46920.80
 rebuild_ks_matrix                 3012  9.9     0.01     0.02 29849.19 29968.07
 qs_ks_build_kohn_sham_matrix      3012 10.9     0.40     0.43 29849.17 29968.06
 qs_ks_update_qs_env               3070  9.0     0.03     0.03 28930.75 29046.20
 pw_transfer                      57319 13.6     5.66     6.33 19838.11 19972.53
 fft_wrap_pw1pw2                  51295 14.6     0.67     0.75 19654.58 19788.65
 fft_wrap_pw1pw2_150              33220 15.7  1447.68  1490.48 18910.64 19027.28
 qs_vxc_create                     3012 11.9     0.07     0.08 17157.13 17179.15
 xc_vxc_pw_create                  3012 12.9   208.77   217.39 17157.05 17179.08
 fft3d_ps                         51295 16.6  8156.17  8397.49 14609.41 14952.25
 dbcsr_multiply_generic           56541 14.0     4.15     4.40 10494.57 10642.27
 qs_rho_update_rho                 3013  9.0     0.02     0.04 10364.38 10471.30
 calculate_rho_elec                3013 10.0  5338.57  5445.27 10364.36 10471.28
 xc_rho_set_and_dset_create        3012 13.9    75.48    77.59  9491.82  9586.70
 qs_scf_new_mos                    2927  9.0     0.03     0.05  9174.34  9360.50
 qs_scf_loop_do_ot                 2927 10.0     0.02     0.03  9174.32  9360.47
 multiply_cannon                  56541 15.0     7.68     9.19  8748.42  9246.12
 sum_up_and_integrate              3012 11.9    44.05    45.48  8633.54  8637.25
 integrate_v_rspace                3012 12.9  5493.22  5554.58  8589.49  8593.95
 ot_scf_mini                       2927 11.0     0.14     0.16  8170.66  8333.01
 multiply_cannon_multrec         226164 16.0  7428.16  7898.40  7429.01  7899.25
 ot_mini                           2927 12.0     0.02     0.02  5189.11  5372.57
 density_rs2pw                     3013 11.0     0.15     0.18  4628.51  4757.02
 x_to_yz                          27109 18.1  2669.95  2733.74  3745.92  3941.82
 qs_ot_get_derivative              2927 13.0     0.03     0.03  3286.84  3450.64
 xc_functional_eval                3012 14.9     0.04     0.04  3308.03  3402.46
 pbe_lda_eval                      3012 15.9  3308.00  3402.42  3308.00  3402.42
 yz_to_x                          24186 17.1  1582.94  1637.00  2706.31  3008.99
 potential_pw2rs                   3012 13.9     6.14     6.46  2907.56  2910.44
 mp_alltoall_z22v                 51295 18.6  2199.34  2796.74  2199.34  2796.74
 qs_ot_get_derivative_taylor       2720 14.0     0.11     0.13  2036.81  2189.19
 pw_gather_p                      24186 16.1  1802.68  1971.05  1802.68  1971.05
 init_scf_loop                      143  8.0     0.00     0.01  1894.78  1895.39
 ot_diis_step                      2927 13.0     0.17     0.18  1891.16  1891.17
 pw_scatter_p                     27109 17.1  1745.49  1838.85  1745.49  1838.85
 apply_preconditioner_dbcsr        3070 14.0     0.01     0.01  1686.39  1758.05
 apply_single                      3070 15.0     0.01     0.02  1686.39  1758.04
 rs_pw_transfer                   24271 13.4     0.51     0.65  1583.55  1731.99
 mp_waitall_1                   2931381 17.6  1251.13  1476.18  1251.13  1476.18
 make_m2s                        113082 15.0     3.23     3.65  1084.19  1159.86
 calculate_dm_sparse               3013 11.0     0.02     0.02  1035.43  1133.09
 -------------------------------------------------------------------------------

 The number of warnings for this run is : 1
 
 -------------------------------------------------------------------------------
  **** **** ******  **  PROGRAM ENDED AT                 2023-02-24 18:08:03.014
 ***** ** ***  *** **   PROGRAM RAN ON                                sebnode036
 **    ****   ******    PROGRAM RAN BY                                    luehrs
 ***** **    ** ** **   PROGRAM PROCESS ID                                798358
  **** **  *******  **  PROGRAM STOPPED IN /home/luehrs/PhD/Li-S_paper/Li-S-Surf
                                           ace_Reaction/Third_Lithiation_of_S8_S
                                           urface/Third_Lithiation_parallel/8.S8
                                           _p
