 DBCSR| Multiplication driver                                               XSMM
 DBCSR| Multrec recursion limit                                              512
 DBCSR| Multiplication stack size                                           1000
 DBCSR| Maximum elements for images                                    UNLIMITED
 DBCSR| Multiplicative factor virtual images                                   1
 DBCSR| Multiplication size stacks                                             3
 DBCSR| Number of 3D layers                                               SINGLE
 DBCSR| Use MPI memory allocation                                              T
 DBCSR| Use RMA algorithm                                                      F
 DBCSR| Use Communication thread                                               T
 DBCSR| Communication thread load                                             87


  **** **** ******  **  PROGRAM STARTED AT               2024-02-02 16:51:32.930
 ***** ** ***  *** **   PROGRAM STARTED ON                            sebnode107
 **    ****   ******    PROGRAM STARTED BY                                luehrs
 ***** **    ** ** **   PROGRAM PROCESS ID                               2494697
  **** **  *******  **  PROGRAM STARTED IN /home/luehrs/PhD/Li-S_paper/Li-S-Surf
                                           ace_Reaction/Third_Lithiation_of_S8_S
                                           urface/Third_Lithiation_around_Li2S8/
                                           Third_Lithiation_parallel/7.S8_p

 CP2K| version string:                    CP2K version 7.0 (Development Version)
 CP2K| source code revision number:                                             
 CP2K| cp2kflags: libint fftw3 libxc parallel mpi3 scalapack xsmm libderiv_max_a
 CP2K|            m1=8 libint_max_am=9 max_contr=4
 CP2K| is freely available from                            https://www.cp2k.org/
 CP2K| Program compiled at                         Sun Jun 24 14:37:16 CEST 2018
 CP2K| Program compiled on                                            sebstorage
 CP2K| Program compiled for                                Linux-x86-64-gfortran
 CP2K| Data directory path    /home/brehm/Software_Batchnode/2018/Source/cp2k_18
 CP2K| Input file name                                              input7.7.inp

 GLOBAL| Force Environment number                                              1
 GLOBAL| Basis set file name                                      ./BASIS_MOLOPT
 GLOBAL| Potential file name                                    ./GTH_POTENTIALS
 GLOBAL| MM Potential file name                                     MM_POTENTIAL
 GLOBAL| Coordinate file name               ./Third_lithiation_7.p_relaxed_1.xyz
 GLOBAL| Method name                                                        CP2K
 GLOBAL| Project name                                                 Li_react_2
 GLOBAL| Preferred FFT library                                             FFTW3
 GLOBAL| Preferred diagonalization lib.                                       SL
 GLOBAL| Run type                                                        GEO_OPT
 GLOBAL| All-to-all communication in single precision                          F
 GLOBAL| FFTs using library dependent lengths                                  F
 GLOBAL| Global print level                                                  LOW
 GLOBAL| Total number of message passing processes                            16
 GLOBAL| Number of threads for this process                                    1
 GLOBAL| This output is from process                                           0
 GLOBAL| CPU model name :  Intel(R) Xeon(R) CPU E5-2620 v4 @ 2.10GHz

 MEMORY| system memory details [Kb]
 MEMORY|                        rank 0           min           max       average
 MEMORY| MemTotal             65847880      65847880      65847880      65847880
 MEMORY| MemFree              60663844      60663844      60663844      60663844
 MEMORY| Buffers                450852        450852        450852        450852
 MEMORY| Cached                 379680        379680        379680        379680
 MEMORY| Slab                   720528        720528        720528        720528
 MEMORY| SReclaimable           349616        349616        349616        349616
 MEMORY| MemLikelyFree        61843992      61843992      61843992      61843992


 GENERATE|  Preliminary Number of Bonds generated:                             0
 GENERATE|  Achieved consistency in connectivity generation.

 *******************************************************************************
 *******************************************************************************
 **                                                                           **
 **     #####                         ##              ##                      **
 **    ##   ##            ##          ##              ##                      **
 **   ##     ##                       ##            ######                    **
 **   ##     ##  ##   ##  ##   #####  ##  ##   ####   ##    #####    #####    **
 **   ##     ##  ##   ##  ##  ##      ## ##   ##      ##   ##   ##  ##   ##   **
 **   ##  ## ##  ##   ##  ##  ##      ####     ###    ##   ######   ######    **
 **    ##  ###   ##   ##  ##  ##      ## ##      ##   ##   ##       ##        **
 **     #######   #####   ##   #####  ##  ##  ####    ##    #####   ##        **
 **           ##                                                    ##        **
 **                                                                           **
 **                                                ... make the atoms dance   **
 **                                                                           **
 **            Copyright (C) by CP2K developers group (2000 - 2018)           **
 **                                                                           **
 *******************************************************************************


 TOTAL NUMBERS AND MAXIMUM NUMBERS

  Total number of            - Atomic kinds:                                   2
                             - Atoms:                                        582
                             - Shell sets:                                   582
                             - Shells:                                      2904
                             - Primitive Cartesian functions:               3486
                             - Cartesian basis functions:                   8100
                             - Spherical basis functions:                   7524

  Maximum angular momentum of- Orbital basis functions:                        2
                             - Local part of the GTH pseudopotential:          6
                             - Non-local part of the GTH pseudopotential:      2


 SCF PARAMETERS         Density guess:                                   RESTART
                        --------------------------------------------------------
                        max_scf:                                              30
                        max_scf_history:                                       0
                        max_diis:                                              4
                        --------------------------------------------------------
                        eps_scf:                                        1.00E-06
                        eps_scf_history:                                0.00E+00
                        eps_diis:                                       1.00E-01
                        eps_eigval:                                     1.00E-05
                        --------------------------------------------------------
                        level_shift [a.u.]:                                 0.00
                        --------------------------------------------------------
                        Outer loop SCF in use 
                        No variables optimised in outer loop
                        eps_scf                                         1.00E-06
                        max_scf                                               25
                        DIIS optimization
                        DIIS buffer length                                     3
                        step_size                                       5.00E-01

 BFGS| Use rational function optimization for step estimation:                NO
 BFGS| Use model Hessian for initial guess:                                  YES
 BFGS| Restart Hessian:                                                       NO
 BFGS| Trust radius:                                                       0.472

 *******************************************************************************
 ***                     STARTING GEOMETRY OPTIMIZATION                      ***
 ***                                   BFGS                                  ***
 *******************************************************************************

 Number of electrons:                                                       3474
 Number of occupied orbitals:                                               1737
 Number of molecular orbitals:                                              1737

 Number of orbital functions:                                               7524
 Number of independent orbital functions:                                   7524

 Extrapolation method: initial_guess

 *** WARNING in qs_initial_guess.F:263 :: User requested to restart the   ***
 *** wavefunction from the file named: Li_react_2-RESTART.wfn. This file  ***
 *** does not exist. Please check the existence of the file or change     ***
 *** properly the value of the keyword WFN_RESTART_FILE_NAME. Calculation ***
 *** continues using ATOMIC GUESS.                                        ***



 SCF WAVEFUNCTION OPTIMIZATION

  ----------------------------------- OT ---------------------------------------
  Minimizer      : DIIS                : direct inversion
                                         in the iterative subspace
                                         using   8 DIIS vectors
                                         safer DIIS on
  Preconditioner : FULL_KINETIC        : inversion of T + eS
  Precond_solver : DEFAULT
  stepsize       :    0.15000000                  energy_gap     :    0.00010000
  eps_taylor     :   0.10000E-15                  max_taylor     :             4
  ----------------------------------- OT ---------------------------------------

  Step     Update method      Time    Convergence         Total energy    Change
  ------------------------------------------------------------------------------
     1 OT DIIS     0.15E+00   18.2     0.00642076     -5756.8054761722 -5.76E+03
     2 OT DIIS     0.15E+00   18.3     0.02460629     -5758.0377729545 -1.23E+00
     3 OT DIIS     0.15E+00   18.3     0.00671534     -5810.0699605538 -5.20E+01
     4 OT DIIS     0.15E+00   18.3     0.00735457     -5828.3393885395 -1.83E+01
     5 OT DIIS     0.15E+00   18.4     0.00584001     -5844.6499645060 -1.63E+01
     6 OT DIIS     0.15E+00   18.4     0.00379661     -5857.6109510922 -1.30E+01
     7 OT DIIS     0.15E+00   18.4     0.00261035     -5873.9580358533 -1.63E+01
     8 OT DIIS     0.15E+00   18.4     0.00282197     -5884.4196451230 -1.05E+01
     9 OT DIIS     0.15E+00   18.4     0.00203616     -5892.0244877353 -7.60E+00
    10 OT DIIS     0.15E+00   18.4     0.00188244     -5897.1143929548 -5.09E+00
    11 OT DIIS     0.15E+00   18.4     0.00149262     -5901.6802254591 -4.57E+00
    12 OT DIIS     0.15E+00   18.4     0.00188234     -5904.8249160797 -3.14E+00
    13 OT DIIS     0.15E+00   18.4     0.00121238     -5907.8962889647 -3.07E+00
    14 OT DIIS     0.15E+00   18.4     0.00118465     -5910.8234925374 -2.93E+00
    15 OT DIIS     0.15E+00   18.4     0.00095333     -5913.4181179769 -2.59E+00
    16 OT DIIS     0.15E+00   18.4     0.00079158     -5915.8609017291 -2.44E+00
    17 OT DIIS     0.15E+00   18.4     0.00087991     -5917.7600077978 -1.90E+00
    18 OT DIIS     0.15E+00   18.4     0.00081858     -5918.9010377369 -1.14E+00
    19 OT DIIS     0.15E+00   18.4     0.00062497     -5920.2760769254 -1.38E+00
    20 OT DIIS     0.15E+00   18.4     0.00069883     -5921.3618521104 -1.09E+00
    21 OT DIIS     0.15E+00   18.2     0.00061543     -5922.0258358925 -6.64E-01
    22 OT DIIS     0.15E+00   18.3     0.00054328     -5922.7837164107 -7.58E-01
    23 OT DIIS     0.15E+00   18.3     0.00051542     -5923.3318658488 -5.48E-01
    24 OT DIIS     0.15E+00   18.3     0.00043221     -5923.8165079648 -4.85E-01
    25 OT DIIS     0.15E+00   18.3     0.00038885     -5924.2779793738 -4.61E-01
    26 OT DIIS     0.15E+00   18.3     0.00039073     -5924.7012419753 -4.23E-01
    27 OT DIIS     0.15E+00   18.3     0.00035097     -5924.9609007553 -2.60E-01
    28 OT DIIS     0.15E+00   18.4     0.00038311     -5925.2523893459 -2.91E-01
    29 OT DIIS     0.15E+00   18.4     0.00031184     -5925.4509874094 -1.99E-01
    30 OT DIIS     0.15E+00   18.4     0.00030939     -5925.6446550964 -1.94E-01

  Leaving inner SCF loop after reaching    30 steps.


  Electronic density on regular grids:      -3474.0000000022       -0.0000000022
  Core density on regular grids:             3473.9999999952       -0.0000000048
  Total charge density on r-space grids:       -0.0000000070
  Total charge density g-space grids:          -0.0000000060

  Overlap energy of the core charge distribution:               0.00000032662623
  Self energy of the core charge distribution:             -13965.50565932552126
  Core Hamiltonian energy:                                   3146.64823654098836
  Hartree energy:                                            6202.76568205065269
  Exchange-correlation energy:                              -1307.08014557515412
  Dispersion energy:                                           -2.47276911400499

  Total energy:                                             -5925.64465509641286

  outer SCF iter =    1 RMS gradient =   0.31E-03 energy =      -5925.6446550964

  ----------------------------------- OT ---------------------------------------
  Minimizer      : DIIS                : direct inversion
                                         in the iterative subspace
                                         using   8 DIIS vectors
                                         safer DIIS on
  Preconditioner : FULL_KINETIC        : inversion of T + eS
  Precond_solver : DEFAULT
  stepsize       :    0.15000000                  energy_gap     :    0.00010000
  eps_taylor     :   0.10000E-15                  max_taylor     :             4
  ----------------------------------- OT ---------------------------------------

  Step     Update method      Time    Convergence         Total energy    Change
  ------------------------------------------------------------------------------
     1 OT DIIS     0.15E+00   40.9     0.00037865     -5925.8182757724 -1.74E-01
     2 OT DIIS     0.15E+00   17.8     0.00086666     -5925.9321617077 -1.14E-01
     3 OT DIIS     0.15E+00   17.9     0.00033593     -5926.0596558126 -1.27E-01
     4 OT DIIS     0.15E+00   18.4     0.00038930     -5926.1997906230 -1.40E-01
     5 OT DIIS     0.15E+00   18.4     0.00033308     -5926.4022556929 -2.02E-01
     6 OT DIIS     0.15E+00   18.3     0.00026888     -5926.5210276393 -1.19E-01
     7 OT DIIS     0.15E+00   18.3     0.00023543     -5926.6621687109 -1.41E-01
     8 OT DIIS     0.15E+00   18.4     0.00020448     -5926.9413376366 -2.79E-01
     9 OT DIIS     0.15E+00   18.4     0.00026251     -5927.0841833228 -1.43E-01
    10 OT DIIS     0.15E+00   18.4     0.00023061     -5927.1742671197 -9.01E-02
    11 OT DIIS     0.15E+00   18.3     0.00019951     -5927.3116529056 -1.37E-01
    12 OT DIIS     0.15E+00   18.4     0.00024787     -5927.3285518344 -1.69E-02
    13 OT DIIS     0.15E+00   18.4     0.00020362     -5927.4038013374 -7.52E-02
    14 OT DIIS     0.15E+00   18.4     0.00017046     -5927.4474956328 -4.37E-02
    15 OT DIIS     0.15E+00   18.4     0.00015621     -5927.4736777797 -2.62E-02
    16 OT DIIS     0.15E+00   18.4     0.00010737     -5927.4984440480 -2.48E-02
    17 OT DIIS     0.15E+00   18.4     0.00009897     -5927.5264331787 -2.80E-02
    18 OT DIIS     0.15E+00   18.4     0.00009648     -5927.5415156457 -1.51E-02
    19 OT DIIS     0.15E+00   18.4     0.00009453     -5927.5611788838 -1.97E-02
    20 OT DIIS     0.15E+00   18.3     0.00009766     -5927.5771594639 -1.60E-02
    21 OT DIIS     0.15E+00   18.4     0.00009030     -5927.5888160799 -1.17E-02
    22 OT DIIS     0.15E+00   18.4     0.00009421     -5927.6034770602 -1.47E-02
    23 OT DIIS     0.15E+00   18.4     0.00008540     -5927.6187314576 -1.53E-02
    24 OT DIIS     0.15E+00   18.3     0.00008839     -5927.6291960719 -1.05E-02
    25 OT DIIS     0.15E+00   18.4     0.00008214     -5927.6424559101 -1.33E-02
    26 OT DIIS     0.15E+00   18.4     0.00008232     -5927.6618719708 -1.94E-02
    27 OT DIIS     0.15E+00   18.4     0.00007877     -5927.6772896370 -1.54E-02
    28 OT DIIS     0.15E+00   18.4     0.00007933     -5927.6975681749 -2.03E-02
    29 OT DIIS     0.15E+00   18.4     0.00008298     -5927.7125131154 -1.49E-02
    30 OT DIIS     0.15E+00   18.3     0.00007759     -5927.7237041348 -1.12E-02

  Leaving inner SCF loop after reaching    30 steps.


  Electronic density on regular grids:      -3474.0000000022       -0.0000000022
  Core density on regular grids:             3473.9999999952       -0.0000000048
  Total charge density on r-space grids:       -0.0000000071
  Total charge density g-space grids:          -0.0000000060

  Overlap energy of the core charge distribution:               0.00000032662623
  Self energy of the core charge distribution:             -13965.50565932552126
  Core Hamiltonian energy:                                   3144.28497435842246
  Hartree energy:                                            6203.40999351121172
  Exchange-correlation energy:                              -1307.44024389154902
  Dispersion energy:                                           -2.47276911400499

  Total energy:                                             -5927.72370413481440

  outer SCF iter =    2 RMS gradient =   0.78E-04 energy =      -5927.7237041348

  ----------------------------------- OT ---------------------------------------
  Minimizer      : DIIS                : direct inversion
                                         in the iterative subspace
                                         using   8 DIIS vectors
                                         safer DIIS on
  Preconditioner : FULL_KINETIC        : inversion of T + eS
  Precond_solver : DEFAULT
  stepsize       :    0.15000000                  energy_gap     :    0.00010000
  eps_taylor     :   0.10000E-15                  max_taylor     :             4
  ----------------------------------- OT ---------------------------------------

  Step     Update method      Time    Convergence         Total energy    Change
  ------------------------------------------------------------------------------
     1 OT DIIS     0.15E+00   46.0     0.00009248     -5927.7374547190 -1.38E-02
     2 OT DIIS     0.15E+00   17.8     0.00030620     -5927.7366594538  7.95E-04
     3 OT DIIS     0.15E+00   17.8     0.00007433     -5927.7505836903 -1.39E-02
     4 OT DIIS     0.15E+00   17.9     0.00008587     -5927.7594560069 -8.87E-03
     5 OT DIIS     0.15E+00   17.9     0.00007838     -5927.7725196522 -1.31E-02
     6 OT DIIS     0.15E+00   17.9     0.00006769     -5927.7828004300 -1.03E-02
     7 OT DIIS     0.15E+00   17.9     0.00007463     -5927.7930112599 -1.02E-02
     8 OT DIIS     0.15E+00   17.9     0.00007827     -5927.8159730308 -2.30E-02
     9 OT DIIS     0.15E+00   18.3     0.00005896     -5927.8444470921 -2.85E-02
    10 OT DIIS     0.15E+00   18.4     0.00005968     -5927.8729680124 -2.85E-02
    11 OT DIIS     0.15E+00   18.4     0.00006436     -5927.8959788884 -2.30E-02
    12 OT DIIS     0.15E+00   18.4     0.00008175     -5927.8975642293 -1.59E-03
    13 OT DIIS     0.15E+00   18.4     0.00007443     -5927.8985552905 -9.91E-04
    14 OT DIIS     0.15E+00   18.4     0.00004454     -5927.9000662898 -1.51E-03
    15 OT DIIS     0.15E+00   18.4     0.00004125     -5927.9037402525 -3.67E-03
    16 OT DIIS     0.15E+00   18.4     0.00002968     -5927.9047301054 -9.90E-04
    17 OT DIIS     0.15E+00   18.4     0.00002832     -5927.9054267917 -6.97E-04
    18 OT DIIS     0.15E+00   18.3     0.00001675     -5927.9060949123 -6.68E-04
    19 OT DIIS     0.15E+00   18.3     0.00001549     -5927.9066792006 -5.84E-04
    20 OT DIIS     0.15E+00   18.3     0.00002124     -5927.9070403439 -3.61E-04
    21 OT DIIS     0.15E+00   18.3     0.00001529     -5927.9074034902 -3.63E-04
    22 OT DIIS     0.15E+00   18.4     0.00001626     -5927.9077792647 -3.76E-04
    23 OT DIIS     0.15E+00   18.3     0.00001832     -5927.9080727746 -2.94E-04
    24 OT DIIS     0.15E+00   18.3     0.00001191     -5927.9083758188 -3.03E-04
    25 OT DIIS     0.15E+00   18.3     0.00001244     -5927.9086025037 -2.27E-04
    26 OT DIIS     0.15E+00   18.3     0.00001255     -5927.9088286270 -2.26E-04
    27 OT DIIS     0.15E+00   18.4     0.00001046     -5927.9090524636 -2.24E-04
    28 OT DIIS     0.15E+00   18.4     0.00000921     -5927.9093369025 -2.84E-04
    29 OT DIIS     0.15E+00   18.4     0.00000992     -5927.9095512407 -2.14E-04
    30 OT DIIS     0.15E+00   18.3     0.00000864     -5927.9096632608 -1.12E-04

  Leaving inner SCF loop after reaching    30 steps.


  Electronic density on regular grids:      -3474.0000000023       -0.0000000023
  Core density on regular grids:             3473.9999999952       -0.0000000048
  Total charge density on r-space grids:       -0.0000000071
  Total charge density g-space grids:          -0.0000000060

  Overlap energy of the core charge distribution:               0.00000032662623
  Self energy of the core charge distribution:             -13965.50565932552126
  Core Hamiltonian energy:                                   3144.16506723981229
  Hartree energy:                                            6203.40618433939017
  Exchange-correlation energy:                              -1307.50248672709404
  Dispersion energy:                                           -2.47276911400499

  Total energy:                                             -5927.90966326079160

  outer SCF iter =    3 RMS gradient =   0.86E-05 energy =      -5927.9096632608

  ----------------------------------- OT ---------------------------------------
  Minimizer      : DIIS                : direct inversion
                                         in the iterative subspace
                                         using   8 DIIS vectors
                                         safer DIIS on
  Preconditioner : FULL_KINETIC        : inversion of T + eS
  Precond_solver : DEFAULT
  stepsize       :    0.15000000                  energy_gap     :    0.00010000
  eps_taylor     :   0.10000E-15                  max_taylor     :             4
  ----------------------------------- OT ---------------------------------------

  Step     Update method      Time    Convergence         Total energy    Change
  ------------------------------------------------------------------------------
     1 OT DIIS     0.15E+00   40.6     0.00000848     -5927.9097962186 -1.33E-04
     2 OT DIIS     0.15E+00   17.6     0.00001739     -5927.9098657233 -6.95E-05
     3 OT DIIS     0.15E+00   17.7     0.00000810     -5927.9099215310 -5.58E-05
     4 OT DIIS     0.15E+00   17.7     0.00000869     -5927.9099760515 -5.45E-05
     5 OT DIIS     0.15E+00   17.9     0.00001038     -5927.9101114864 -1.35E-04
     6 OT DIIS     0.15E+00   17.9     0.00000559     -5927.9102252654 -1.14E-04
     7 OT DIIS     0.15E+00   17.9     0.00000507     -5927.9102791923 -5.39E-05
     8 OT DIIS     0.15E+00   18.0     0.00000870     -5927.9104486223 -1.69E-04
     9 OT DIIS     0.15E+00   18.0     0.00000342     -5927.9105100512 -6.14E-05
    10 OT DIIS     0.15E+00   18.0     0.00000377     -5927.9105487641 -3.87E-05
    11 OT DIIS     0.15E+00   17.9     0.00000358     -5927.9105766986 -2.79E-05
    12 OT DIIS     0.15E+00   18.0     0.00000280     -5927.9105847066 -8.01E-06
    13 OT DIIS     0.15E+00   18.0     0.00000300     -5927.9105907126 -6.01E-06
    14 OT DIIS     0.15E+00   18.0     0.00000245     -5927.9106014307 -1.07E-05
    15 OT DIIS     0.15E+00   18.0     0.00000198     -5927.9106039521 -2.52E-06
    16 OT DIIS     0.15E+00   18.0     0.00000147     -5927.9106070875 -3.14E-06
    17 OT DIIS     0.15E+00   18.0     0.00000155     -5927.9106120477 -4.96E-06
    18 OT DIIS     0.15E+00   17.9     0.00000136     -5927.9106138148 -1.77E-06
    19 OT DIIS     0.15E+00   17.9     0.00000117     -5927.9106170161 -3.20E-06
    20 OT DIIS     0.15E+00   17.9     0.00000122     -5927.9106210572 -4.04E-06
    21 OT DIIS     0.15E+00   17.9     0.00000122     -5927.9106222595 -1.20E-06
    22 OT DIIS     0.15E+00   17.9     0.00000130     -5927.9106243407 -2.08E-06
    23 OT DIIS     0.15E+00   17.9     0.00000109     -5927.9106269827 -2.64E-06
    24 OT DIIS     0.15E+00   17.9     0.00000110     -5927.9106282642 -1.28E-06
    25 OT DIIS     0.15E+00   18.0     0.00000093     -5927.9106298818 -1.62E-06

  *** SCF run converged in    25 steps ***


  Electronic density on regular grids:      -3474.0000000025       -0.0000000025
  Core density on regular grids:             3473.9999999952       -0.0000000048
  Total charge density on r-space grids:       -0.0000000073
  Total charge density g-space grids:          -0.0000000062

  Overlap energy of the core charge distribution:               0.00000032662623
  Self energy of the core charge distribution:             -13965.50565932552126
  Core Hamiltonian energy:                                   3144.15712510003095
  Hartree energy:                                            6203.41220500737654
  Exchange-correlation energy:                              -1307.50153187634078
  Dispersion energy:                                           -2.47276911400499

  Total energy:                                             -5927.91062988183239

  outer SCF iter =    4 RMS gradient =   0.93E-06 energy =      -5927.9106298818
  outer SCF loop converged in   4 iterations or  115 steps


 ENERGY| Total FORCE_EVAL ( QS ) energy (a.u.):            -5927.910632841036204


 --------  Informations at step =     0 ------------
  Optimization Method        =                 BFGS
  Total Energy               =     -5927.9106328410
  Used time                  =             2170.009
 ---------------------------------------------------

 --------------------------
 OPTIMIZATION STEP:      1
 --------------------------

 Number of electrons:                                                       3474
 Number of occupied orbitals:                                               1737
 Number of molecular orbitals:                                              1737

 Number of orbital functions:                                               7524
 Number of independent orbital functions:                                   7524

 Extrapolation method: ASPC


 SCF WAVEFUNCTION OPTIMIZATION

  ----------------------------------- OT ---------------------------------------
  Minimizer      : DIIS                : direct inversion
                                         in the iterative subspace
                                         using   8 DIIS vectors
                                         safer DIIS on
  Preconditioner : FULL_KINETIC        : inversion of T + eS
  Precond_solver : DEFAULT
  stepsize       :    0.15000000                  energy_gap     :    0.00010000
  eps_taylor     :   0.10000E-15                  max_taylor     :             4
  ----------------------------------- OT ---------------------------------------

  Step     Update method      Time    Convergence         Total energy    Change
  ------------------------------------------------------------------------------
     1 OT DIIS     0.15E+00   17.5     0.00003974     -5927.9160021221 -5.93E+03
     2 OT DIIS     0.15E+00   17.9     0.00002850     -5927.9185591992 -2.56E-03
     3 OT DIIS     0.15E+00   17.9     0.00004278     -5927.9204052399 -1.85E-03
     4 OT DIIS     0.15E+00   17.9     0.00003522     -5927.9209542267 -5.49E-04
     5 OT DIIS     0.15E+00   17.9     0.00001898     -5927.9217814398 -8.27E-04
     6 OT DIIS     0.15E+00   17.9     0.00001969     -5927.9222043690 -4.23E-04
     7 OT DIIS     0.15E+00   17.9     0.00001764     -5927.9224845692 -2.80E-04
     8 OT DIIS     0.15E+00   18.0     0.00001224     -5927.9226999184 -2.15E-04
     9 OT DIIS     0.15E+00   18.0     0.00001178     -5927.9228269605 -1.27E-04
    10 OT DIIS     0.15E+00   17.9     0.00000982     -5927.9229170757 -9.01E-05
    11 OT DIIS     0.15E+00   18.0     0.00000560     -5927.9229777672 -6.07E-05
    12 OT DIIS     0.15E+00   18.0     0.00000500     -5927.9230472185 -6.95E-05
    13 OT DIIS     0.15E+00   18.0     0.00000787     -5927.9230711979 -2.40E-05
    14 OT DIIS     0.15E+00   18.0     0.00000409     -5927.9231013477 -3.01E-05
    15 OT DIIS     0.15E+00   18.0     0.00000428     -5927.9231243019 -2.30E-05
    16 OT DIIS     0.15E+00   18.0     0.00000345     -5927.9231395760 -1.53E-05
    17 OT DIIS     0.15E+00   18.0     0.00000314     -5927.9231531267 -1.36E-05
    18 OT DIIS     0.15E+00   17.9     0.00000323     -5927.9231633753 -1.02E-05
    19 OT DIIS     0.15E+00   17.9     0.00000285     -5927.9231718849 -8.51E-06
    20 OT DIIS     0.15E+00   17.9     0.00000215     -5927.9231773897 -5.50E-06
    21 OT DIIS     0.15E+00   17.8     0.00000211     -5927.9231830938 -5.70E-06
    22 OT DIIS     0.15E+00   17.8     0.00000203     -5927.9231862185 -3.12E-06
    23 OT DIIS     0.15E+00   17.9     0.00000176     -5927.9231889194 -2.70E-06
    24 OT DIIS     0.15E+00   17.9     0.00000151     -5927.9231911292 -2.21E-06
    25 OT DIIS     0.15E+00   17.9     0.00000121     -5927.9231934992 -2.37E-06
    26 OT DIIS     0.15E+00   17.9     0.00000138     -5927.9231951560 -1.66E-06
    27 OT DIIS     0.15E+00   18.0     0.00000111     -5927.9231967110 -1.56E-06
    28 OT DIIS     0.15E+00   18.0     0.00000117     -5927.9231981787 -1.47E-06
    29 OT DIIS     0.15E+00   18.0     0.00000094     -5927.9231989477 -7.69E-07

  *** SCF run converged in    29 steps ***


  Electronic density on regular grids:      -3474.0000000017       -0.0000000017
  Core density on regular grids:             3473.9999999951       -0.0000000049
  Total charge density on r-space grids:       -0.0000000066
  Total charge density g-space grids:          -0.0000000055

  Overlap energy of the core charge distribution:               0.00000032681871
  Self energy of the core charge distribution:             -13965.50565932552126
  Core Hamiltonian energy:                                   3144.14420944875064
  Hartree energy:                                            6203.41041753458740
  Exchange-correlation energy:                              -1307.49943536966043
  Dispersion energy:                                           -2.47273156263547

  Total energy:                                             -5927.92319894766115

  outer SCF iter =    1 RMS gradient =   0.94E-06 energy =      -5927.9231989477
  outer SCF loop converged in   1 iterations or   29 steps


 ENERGY| Total FORCE_EVAL ( QS ) energy (a.u.):            -5927.923200085757344


 --------  Informations at step =     1 ------------
  Optimization Method        =                 BFGS
  Total Energy               =     -5927.9232000858
  Real energy change         =        -0.0125672447
  Predicted change in energy =        -0.0083879552
  Scaling factor             =         0.0000000000
  Step size                  =         0.1964133950
  Trust radius               =         0.4724315332
  Decrease in energy         =                  YES
  Used time                  =              556.206

  Convergence check :
  Max. step size             =         0.1964133950
  Conv. limit for step size  =         0.0030000000
  Convergence in step size   =                   NO
  RMS step size              =         0.0091636459
  Conv. limit for RMS step   =         0.0015000000
  Convergence in RMS step    =                   NO
  Max. gradient              =         0.0149028160
  Conv. limit for gradients  =         0.0004500000
  Conv. for gradients        =                   NO
  RMS gradient               =         0.0006561227
  Conv. limit for RMS grad.  =         0.0003000000
  Conv. for gradients        =                   NO
 ---------------------------------------------------

 --------------------------
 OPTIMIZATION STEP:      2
 --------------------------

 Number of electrons:                                                       3474
 Number of occupied orbitals:                                               1737
 Number of molecular orbitals:                                              1737

 Number of orbital functions:                                               7524
 Number of independent orbital functions:                                   7524

 Extrapolation method: ASPC


 SCF WAVEFUNCTION OPTIMIZATION

  ----------------------------------- OT ---------------------------------------
  Minimizer      : DIIS                : direct inversion
                                         in the iterative subspace
                                         using   8 DIIS vectors
                                         safer DIIS on
  Preconditioner : FULL_KINETIC        : inversion of T + eS
  Precond_solver : DEFAULT
  stepsize       :    0.15000000                  energy_gap     :    0.00010000
  eps_taylor     :   0.10000E-15                  max_taylor     :             4
  ----------------------------------- OT ---------------------------------------

  Step     Update method      Time    Convergence         Total energy    Change
  ------------------------------------------------------------------------------
     1 OT DIIS     0.15E+00   17.5     0.00002908     -5927.9275111460 -5.93E+03
     2 OT DIIS     0.15E+00   17.9     0.00002088     -5927.9288566873 -1.35E-03
     3 OT DIIS     0.15E+00   17.9     0.00004779     -5927.9294369090 -5.80E-04
     4 OT DIIS     0.15E+00   17.9     0.00001784     -5927.9300366981 -6.00E-04
     5 OT DIIS     0.15E+00   18.0     0.00002425     -5927.9302822488 -2.46E-04
     6 OT DIIS     0.15E+00   18.0     0.00001436     -5927.9305240855 -2.42E-04
     7 OT DIIS     0.15E+00   17.9     0.00001029     -5927.9306743933 -1.50E-04
     8 OT DIIS     0.15E+00   18.0     0.00000646     -5927.9307840213 -1.10E-04
     9 OT DIIS     0.15E+00   18.0     0.00000916     -5927.9308297227 -4.57E-05
    10 OT DIIS     0.15E+00   18.0     0.00000523     -5927.9308632670 -3.35E-05
    11 OT DIIS     0.15E+00   18.0     0.00000369     -5927.9308869874 -2.37E-05
    12 OT DIIS     0.15E+00   18.0     0.00000499     -5927.9309057264 -1.87E-05
    13 OT DIIS     0.15E+00   18.0     0.00000352     -5927.9309181619 -1.24E-05
    14 OT DIIS     0.15E+00   18.0     0.00000364     -5927.9309272962 -9.13E-06
    15 OT DIIS     0.15E+00   17.9     0.00000265     -5927.9309376541 -1.04E-05
    16 OT DIIS     0.15E+00   18.0     0.00000240     -5927.9309446569 -7.00E-06
    17 OT DIIS     0.15E+00   17.9     0.00000186     -5927.9309512478 -6.59E-06
    18 OT DIIS     0.15E+00   17.9     0.00000187     -5927.9309575667 -6.32E-06
    19 OT DIIS     0.15E+00   17.9     0.00000202     -5927.9309618771 -4.31E-06
    20 OT DIIS     0.15E+00   17.9     0.00000167     -5927.9309647305 -2.85E-06
    21 OT DIIS     0.15E+00   17.8     0.00000139     -5927.9309683069 -3.58E-06
    22 OT DIIS     0.15E+00   17.9     0.00000149     -5927.9309699139 -1.61E-06
    23 OT DIIS     0.15E+00   17.9     0.00000122     -5927.9309715805 -1.67E-06
    24 OT DIIS     0.15E+00   17.9     0.00000115     -5927.9309729014 -1.32E-06
    25 OT DIIS     0.15E+00   17.9     0.00000094     -5927.9309742122 -1.31E-06

  *** SCF run converged in    25 steps ***


  Electronic density on regular grids:      -3474.0000000017       -0.0000000017
  Core density on regular grids:             3473.9999999952       -0.0000000048
  Total charge density on r-space grids:       -0.0000000066
  Total charge density g-space grids:          -0.0000000056

  Overlap energy of the core charge distribution:               0.00000032674648
  Self energy of the core charge distribution:             -13965.50565932552126
  Core Hamiltonian energy:                                   3144.07992983422992
  Hartree energy:                                            6203.44597348774460
  Exchange-correlation energy:                              -1307.47858207368745
  Dispersion energy:                                           -2.47263646168773

  Total energy:                                             -5927.93097421217590

  outer SCF iter =    1 RMS gradient =   0.94E-06 energy =      -5927.9309742122
  outer SCF loop converged in   1 iterations or   25 steps


 ENERGY| Total FORCE_EVAL ( QS ) energy (a.u.):            -5927.930975238855353


 --------  Informations at step =     2 ------------
  Optimization Method        =                 BFGS
  Total Energy               =     -5927.9309752389
  Real energy change         =        -0.0077751531
  Predicted change in energy =        -0.0084770850
  Scaling factor             =         0.0000000000
  Step size                  =         0.3344721743
  Trust radius               =         0.4724315332
  Decrease in energy         =                  YES
  Used time                  =              486.005

  Convergence check :
  Max. step size             =         0.3344721743
  Conv. limit for step size  =         0.0030000000
  Convergence in step size   =                   NO
  RMS step size              =         0.0156096079
  Conv. limit for RMS step   =         0.0015000000
  Convergence in RMS step    =                   NO
  Max. gradient              =         0.0062941691
  Conv. limit for gradients  =         0.0004500000
  Conv. for gradients        =                   NO
  RMS gradient               =         0.0003796013
  Conv. limit for RMS grad.  =         0.0003000000
  Conv. for gradients        =                   NO
 ---------------------------------------------------

 --------------------------
 OPTIMIZATION STEP:      3
 --------------------------

 Number of electrons:                                                       3474
 Number of occupied orbitals:                                               1737
 Number of molecular orbitals:                                              1737

 Number of orbital functions:                                               7524
 Number of independent orbital functions:                                   7524

 Extrapolation method: ASPC


 SCF WAVEFUNCTION OPTIMIZATION

  ----------------------------------- OT ---------------------------------------
  Minimizer      : DIIS                : direct inversion
                                         in the iterative subspace
                                         using   8 DIIS vectors
                                         safer DIIS on
  Preconditioner : FULL_KINETIC        : inversion of T + eS
  Precond_solver : DEFAULT
  stepsize       :    0.15000000                  energy_gap     :    0.00010000
  eps_taylor     :   0.10000E-15                  max_taylor     :             4
  ----------------------------------- OT ---------------------------------------

  Step     Update method      Time    Convergence         Total energy    Change
  ------------------------------------------------------------------------------
     1 OT DIIS     0.15E+00   17.5     0.00007218     -5927.9094179990 -5.93E+03
     2 OT DIIS     0.15E+00   17.8     0.00005122     -5927.9177908331 -8.37E-03
     3 OT DIIS     0.15E+00   17.8     0.00007544     -5927.9236106717 -5.82E-03
     4 OT DIIS     0.15E+00   17.8     0.00006069     -5927.9254029147 -1.79E-03
     5 OT DIIS     0.15E+00   17.9     0.00004552     -5927.9279624421 -2.56E-03
     6 OT DIIS     0.15E+00   17.8     0.00003912     -5927.9290918199 -1.13E-03
     7 OT DIIS     0.15E+00   17.9     0.00002703     -5927.9301348165 -1.04E-03
     8 OT DIIS     0.15E+00   17.9     0.00001770     -5927.9308483798 -7.14E-04
     9 OT DIIS     0.15E+00   17.9     0.00002081     -5927.9312915214 -4.43E-04
    10 OT DIIS     0.15E+00   17.9     0.00001747     -5927.9315080964 -2.17E-04
    11 OT DIIS     0.15E+00   17.9     0.00000981     -5927.9316813928 -1.73E-04
    12 OT DIIS     0.15E+00   17.9     0.00001035     -5927.9318563574 -1.75E-04
    13 OT DIIS     0.15E+00   17.9     0.00001019     -5927.9319220474 -6.57E-05
    14 OT DIIS     0.15E+00   17.9     0.00000921     -5927.9319993777 -7.73E-05
    15 OT DIIS     0.15E+00   17.9     0.00000699     -5927.9320535104 -5.41E-05
    16 OT DIIS     0.15E+00   17.9     0.00000592     -5927.9321058561 -5.23E-05
    17 OT DIIS     0.15E+00   17.9     0.00000527     -5927.9321395480 -3.37E-05
    18 OT DIIS     0.15E+00   17.9     0.00000452     -5927.9321755718 -3.60E-05
    19 OT DIIS     0.15E+00   17.9     0.00000494     -5927.9321982345 -2.27E-05
    20 OT DIIS     0.15E+00   17.9     0.00000442     -5927.9322116525 -1.34E-05
    21 OT DIIS     0.15E+00   17.8     0.00000328     -5927.9322277059 -1.61E-05
    22 OT DIIS     0.15E+00   17.9     0.00000339     -5927.9322377618 -1.01E-05
    23 OT DIIS     0.15E+00   17.9     0.00000303     -5927.9322443699 -6.61E-06
    24 OT DIIS     0.15E+00   17.9     0.00000270     -5927.9322509850 -6.62E-06
    25 OT DIIS     0.15E+00   17.9     0.00000229     -5927.9322562831 -5.30E-06
    26 OT DIIS     0.15E+00   17.9     0.00000198     -5927.9322611996 -4.92E-06
    27 OT DIIS     0.15E+00   17.9     0.00000194     -5927.9322651814 -3.98E-06
    28 OT DIIS     0.15E+00   17.9     0.00000169     -5927.9322687317 -3.55E-06
    29 OT DIIS     0.15E+00   17.9     0.00000181     -5927.9322709052 -2.17E-06
    30 OT DIIS     0.15E+00   17.9     0.00000136     -5927.9322733620 -2.46E-06

  Leaving inner SCF loop after reaching    30 steps.


  Electronic density on regular grids:      -3474.0000000112       -0.0000000112
  Core density on regular grids:             3473.9999999951       -0.0000000049
  Total charge density on r-space grids:       -0.0000000161
  Total charge density g-space grids:          -0.0000000151

  Overlap energy of the core charge distribution:               0.00000032682849
  Self energy of the core charge distribution:             -13965.50565932552126
  Core Hamiltonian energy:                                   3144.09266615420802
  Hartree energy:                                            6203.43671538627859
  Exchange-correlation energy:                              -1307.48332118066742
  Dispersion energy:                                           -2.47267472308533

  Total energy:                                             -5927.93227336195741

  outer SCF iter =    1 RMS gradient =   0.14E-05 energy =      -5927.9322733620

  ----------------------------------- OT ---------------------------------------
  Minimizer      : DIIS                : direct inversion
                                         in the iterative subspace
                                         using   8 DIIS vectors
                                         safer DIIS on
  Preconditioner : FULL_KINETIC        : inversion of T + eS
  Precond_solver : DEFAULT
  stepsize       :    0.15000000                  energy_gap     :    0.00010000
  eps_taylor     :   0.10000E-15                  max_taylor     :             4
  ----------------------------------- OT ---------------------------------------

  Step     Update method      Time    Convergence         Total energy    Change
  ------------------------------------------------------------------------------
     1 OT DIIS     0.15E+00   40.3     0.00000140     -5927.9322754885 -2.13E-06
     2 OT DIIS     0.15E+00   17.6     0.00000549     -5927.9322728525  2.64E-06
     3 OT DIIS     0.15E+00   17.6     0.00000106     -5927.9322774826 -4.63E-06
     4 OT DIIS     0.15E+00   17.6     0.00000105     -5927.9322780285 -5.46E-07
     5 OT DIIS     0.15E+00   17.6     0.00000107     -5927.9322793520 -1.32E-06
     6 OT DIIS     0.15E+00   17.6     0.00000077     -5927.9322839423 -4.59E-06

  *** SCF run converged in     6 steps ***


  Electronic density on regular grids:      -3474.0000000020       -0.0000000020
  Core density on regular grids:             3473.9999999951       -0.0000000049
  Total charge density on r-space grids:       -0.0000000069
  Total charge density g-space grids:          -0.0000000058

  Overlap energy of the core charge distribution:               0.00000032682849
  Self energy of the core charge distribution:             -13965.50565932552126
  Core Hamiltonian energy:                                   3144.09245650578123
  Hartree energy:                                            6203.43687199814849
  Exchange-correlation energy:                              -1307.48327872448431
  Dispersion energy:                                           -2.47267472308533

  Total energy:                                             -5927.93228394233211

  outer SCF iter =    2 RMS gradient =   0.77E-06 energy =      -5927.9322839423
  outer SCF loop converged in   2 iterations or   36 steps


 ENERGY| Total FORCE_EVAL ( QS ) energy (a.u.):            -5927.932284303700726


 --------  Informations at step =     3 ------------
  Optimization Method        =                 BFGS
  Total Energy               =     -5927.9322843037
  Real energy change         =        -0.0013090648
  Predicted change in energy =        -0.0007748596
  Scaling factor             =         0.0000000000
  Step size                  =         0.0665081817
  Trust radius               =         0.4724315332
  Decrease in energy         =                  YES
  Used time                  =              685.705

  Convergence check :
  Max. step size             =         0.0665081817
  Conv. limit for step size  =         0.0030000000
  Convergence in step size   =                   NO
  RMS step size              =         0.0030958752
  Conv. limit for RMS step   =         0.0015000000
  Convergence in RMS step    =                   NO
  Max. gradient              =         0.0042953095
  Conv. limit for gradients  =         0.0004500000
  Conv. for gradients        =                   NO
  RMS gradient               =         0.0002787566
  Conv. limit for RMS grad.  =         0.0003000000
  Conv. in RMS gradients     =                  YES
 ---------------------------------------------------

 --------------------------
 OPTIMIZATION STEP:      4
 --------------------------

 Number of electrons:                                                       3474
 Number of occupied orbitals:                                               1737
 Number of molecular orbitals:                                              1737

 Number of orbital functions:                                               7524
 Number of independent orbital functions:                                   7524

 Extrapolation method: ASPC


 SCF WAVEFUNCTION OPTIMIZATION

  ----------------------------------- OT ---------------------------------------
  Minimizer      : DIIS                : direct inversion
                                         in the iterative subspace
                                         using   8 DIIS vectors
                                         safer DIIS on
  Preconditioner : FULL_KINETIC        : inversion of T + eS
  Precond_solver : DEFAULT
  stepsize       :    0.15000000                  energy_gap     :    0.00010000
  eps_taylor     :   0.10000E-15                  max_taylor     :             4
  ----------------------------------- OT ---------------------------------------

  Step     Update method      Time    Convergence         Total energy    Change
  ------------------------------------------------------------------------------
     1 OT DIIS     0.15E+00   17.5     0.00005070     -5927.9228864637 -5.93E+03
     2 OT DIIS     0.15E+00   17.8     0.00003807     -5927.9270821556 -4.20E-03
     3 OT DIIS     0.15E+00   17.8     0.00009635     -5927.9289583167 -1.88E-03
     4 OT DIIS     0.15E+00   17.8     0.00003037     -5927.9313185269 -2.36E-03
     5 OT DIIS     0.15E+00   17.9     0.00004208     -5927.9323174998 -9.99E-04
     6 OT DIIS     0.15E+00   17.9     0.00002163     -5927.9330143116 -6.97E-04
     7 OT DIIS     0.15E+00   17.9     0.00001711     -5927.9335293351 -5.15E-04
     8 OT DIIS     0.15E+00   17.9     0.00001389     -5927.9337918030 -2.62E-04
     9 OT DIIS     0.15E+00   17.9     0.00001622     -5927.9339107048 -1.19E-04
    10 OT DIIS     0.15E+00   17.9     0.00000821     -5927.9340419772 -1.31E-04
    11 OT DIIS     0.15E+00   17.9     0.00000676     -5927.9340986195 -5.66E-05
    12 OT DIIS     0.15E+00   17.9     0.00000848     -5927.9341502476 -5.16E-05
    13 OT DIIS     0.15E+00   17.9     0.00000624     -5927.9341824338 -3.22E-05
    14 OT DIIS     0.15E+00   17.9     0.00000602     -5927.9342048355 -2.24E-05
    15 OT DIIS     0.15E+00   17.9     0.00000393     -5927.9342317512 -2.69E-05
    16 OT DIIS     0.15E+00   17.9     0.00000405     -5927.9342489617 -1.72E-05
    17 OT DIIS     0.15E+00   17.9     0.00000287     -5927.9342632204 -1.43E-05
    18 OT DIIS     0.15E+00   17.9     0.00000307     -5927.9342769268 -1.37E-05
    19 OT DIIS     0.15E+00   17.9     0.00000313     -5927.9342841799 -7.25E-06
    20 OT DIIS     0.15E+00   17.9     0.00000219     -5927.9342911466 -6.97E-06
    21 OT DIIS     0.15E+00   17.7     0.00000227     -5927.9342968555 -5.71E-06
    22 OT DIIS     0.15E+00   17.9     0.00000229     -5927.9342993992 -2.54E-06
    23 OT DIIS     0.15E+00   17.9     0.00000193     -5927.9343020978 -2.70E-06
    24 OT DIIS     0.15E+00   17.9     0.00000154     -5927.9343042969 -2.20E-06
    25 OT DIIS     0.15E+00   17.9     0.00000133     -5927.9343064503 -2.15E-06
    26 OT DIIS     0.15E+00   17.9     0.00000124     -5927.9343078250 -1.37E-06
    27 OT DIIS     0.15E+00   17.9     0.00000105     -5927.9343092575 -1.43E-06
    28 OT DIIS     0.15E+00   17.9     0.00000107     -5927.9343102714 -1.01E-06
    29 OT DIIS     0.15E+00   17.9     0.00000089     -5927.9343109778 -7.06E-07

  *** SCF run converged in    29 steps ***


  Electronic density on regular grids:      -3474.0000000024       -0.0000000024
  Core density on regular grids:             3473.9999999951       -0.0000000049
  Total charge density on r-space grids:       -0.0000000073
  Total charge density g-space grids:          -0.0000000062

  Overlap energy of the core charge distribution:               0.00000032701265
  Self energy of the core charge distribution:             -13965.50565932552126
  Core Hamiltonian energy:                                   3144.12797719158743
  Hartree energy:                                            6203.41182208387727
  Exchange-correlation energy:                              -1307.49565897668367
  Dispersion energy:                                           -2.47279227802461

  Total energy:                                             -5927.93431097775283

  outer SCF iter =    1 RMS gradient =   0.89E-06 energy =      -5927.9343109778
  outer SCF loop converged in   1 iterations or   29 steps


 ENERGY| Total FORCE_EVAL ( QS ) energy (a.u.):            -5927.934311769375199


 --------  Informations at step =     4 ------------
  Optimization Method        =                 BFGS
  Total Energy               =     -5927.9343117694
  Real energy change         =        -0.0020274657
  Predicted change in energy =        -0.0016911859
  Scaling factor             =         0.0000000000
  Step size                  =         0.1328860485
  Trust radius               =         0.4724315332
  Decrease in energy         =                  YES
  Used time                  =              560.018

  Convergence check :
  Max. step size             =         0.1328860485
  Conv. limit for step size  =         0.0030000000
  Convergence in step size   =                   NO
  RMS step size              =         0.0081823212
  Conv. limit for RMS step   =         0.0015000000
  Convergence in RMS step    =                   NO
  Max. gradient              =         0.0042908956
  Conv. limit for gradients  =         0.0004500000
  Conv. for gradients        =                   NO
  RMS gradient               =         0.0002593516
  Conv. limit for RMS grad.  =         0.0003000000
  Conv. in RMS gradients     =                  YES
 ---------------------------------------------------

 --------------------------
 OPTIMIZATION STEP:      5
 --------------------------

 Number of electrons:                                                       3474
 Number of occupied orbitals:                                               1737
 Number of molecular orbitals:                                              1737

 Number of orbital functions:                                               7524
 Number of independent orbital functions:                                   7524

 Extrapolation method: ASPC


 SCF WAVEFUNCTION OPTIMIZATION

  ----------------------------------- OT ---------------------------------------
  Minimizer      : DIIS                : direct inversion
                                         in the iterative subspace
                                         using   8 DIIS vectors
                                         safer DIIS on
  Preconditioner : FULL_KINETIC        : inversion of T + eS
  Precond_solver : DEFAULT
  stepsize       :    0.15000000                  energy_gap     :    0.00010000
  eps_taylor     :   0.10000E-15                  max_taylor     :             4
  ----------------------------------- OT ---------------------------------------

  Step     Update method      Time    Convergence         Total energy    Change
  ------------------------------------------------------------------------------
     1 OT DIIS     0.15E+00   17.4     0.00001569     -5927.9350769564 -5.93E+03
     2 OT DIIS     0.15E+00   17.7     0.00001379     -5927.9354440211 -3.67E-04
     3 OT DIIS     0.15E+00   17.9     0.00003065     -5927.9354507267 -6.71E-06
     4 OT DIIS     0.15E+00   17.9     0.00001175     -5927.9357274383 -2.77E-04
     5 OT DIIS     0.15E+00   17.9     0.00001149     -5927.9357824718 -5.50E-05
     6 OT DIIS     0.15E+00   17.9     0.00000799     -5927.9358500130 -6.75E-05
     7 OT DIIS     0.15E+00   17.9     0.00000433     -5927.9359214449 -7.14E-05
     8 OT DIIS     0.15E+00   17.9     0.00000549     -5927.9359480845 -2.66E-05
     9 OT DIIS     0.15E+00   17.9     0.00000472     -5927.9359671123 -1.90E-05
    10 OT DIIS     0.15E+00   17.9     0.00000317     -5927.9359800509 -1.29E-05
    11 OT DIIS     0.15E+00   17.9     0.00000293     -5927.9359867952 -6.74E-06
    12 OT DIIS     0.15E+00   17.9     0.00000256     -5927.9359933045 -6.51E-06
    13 OT DIIS     0.15E+00   17.9     0.00000219     -5927.9359991229 -5.82E-06
    14 OT DIIS     0.15E+00   17.9     0.00000206     -5927.9360017125 -2.59E-06
    15 OT DIIS     0.15E+00   17.9     0.00000162     -5927.9360057027 -3.99E-06
    16 OT DIIS     0.15E+00   17.9     0.00000136     -5927.9360083877 -2.68E-06
    17 OT DIIS     0.15E+00   17.9     0.00000106     -5927.9360108549 -2.47E-06
    18 OT DIIS     0.15E+00   17.9     0.00000103     -5927.9360132811 -2.43E-06
    19 OT DIIS     0.15E+00   17.9     0.00000117     -5927.9360149512 -1.67E-06
    20 OT DIIS     0.15E+00   17.9     0.00000100     -5927.9360157932 -8.42E-07

  *** SCF run converged in    20 steps ***


  Electronic density on regular grids:      -3474.0000000015       -0.0000000015
  Core density on regular grids:             3473.9999999951       -0.0000000049
  Total charge density on r-space grids:       -0.0000000064
  Total charge density g-space grids:          -0.0000000053

  Overlap energy of the core charge distribution:               0.00000032670455
  Self energy of the core charge distribution:             -13965.50565932552126
  Core Hamiltonian energy:                                   3144.11652842976218
  Hartree energy:                                            6203.41804588299692
  Exchange-correlation energy:                              -1307.49199563425191
  Dispersion energy:                                           -2.47293547288317

  Total energy:                                             -5927.93601579319329

  outer SCF iter =    1 RMS gradient =   0.10E-05 energy =      -5927.9360157932
  outer SCF loop converged in   1 iterations or   20 steps


 ENERGY| Total FORCE_EVAL ( QS ) energy (a.u.):            -5927.936017122319754


 --------  Informations at step =     5 ------------
  Optimization Method        =                 BFGS
  Total Energy               =     -5927.9360171223
  Real energy change         =        -0.0017053529
  Predicted change in energy =        -0.0016409360
  Scaling factor             =         0.0000000000
  Step size                  =         0.2129248104
  Trust radius               =         0.4724315332
  Decrease in energy         =                  YES
  Used time                  =              396.773

  Convergence check :
  Max. step size             =         0.2129248104
  Conv. limit for step size  =         0.0030000000
  Convergence in step size   =                   NO
  RMS step size              =         0.0132347178
  Conv. limit for RMS step   =         0.0015000000
  Convergence in RMS step    =                   NO
  Max. gradient              =         0.0042468354
  Conv. limit for gradients  =         0.0004500000
  Conv. for gradients        =                   NO
  RMS gradient               =         0.0003153713
  Conv. limit for RMS grad.  =         0.0003000000
  Conv. for gradients        =                   NO
 ---------------------------------------------------

 --------------------------
 OPTIMIZATION STEP:      6
 --------------------------

 Number of electrons:                                                       3474
 Number of occupied orbitals:                                               1737
 Number of molecular orbitals:                                              1737

 Number of orbital functions:                                               7524
 Number of independent orbital functions:                                   7524

 Extrapolation method: ASPC


 SCF WAVEFUNCTION OPTIMIZATION

  ----------------------------------- OT ---------------------------------------
  Minimizer      : DIIS                : direct inversion
                                         in the iterative subspace
                                         using   8 DIIS vectors
                                         safer DIIS on
  Preconditioner : FULL_KINETIC        : inversion of T + eS
  Precond_solver : DEFAULT
  stepsize       :    0.15000000                  energy_gap     :    0.00010000
  eps_taylor     :   0.10000E-15                  max_taylor     :             4
  ----------------------------------- OT ---------------------------------------

  Step     Update method      Time    Convergence         Total energy    Change
  ------------------------------------------------------------------------------
     1 OT DIIS     0.15E+00   17.5     0.00003569     -5927.9315018490 -5.93E+03
     2 OT DIIS     0.15E+00   17.9     0.00002738     -5927.9335675738 -2.07E-03
     3 OT DIIS     0.15E+00   17.9     0.00006998     -5927.9342081290 -6.41E-04
     4 OT DIIS     0.15E+00   17.9     0.00002494     -5927.9355923968 -1.38E-03
     5 OT DIIS     0.15E+00   17.9     0.00002452     -5927.9359475134 -3.55E-04
     6 OT DIIS     0.15E+00   17.9     0.00002138     -5927.9362807335 -3.33E-04
     7 OT DIIS     0.15E+00   17.9     0.00001108     -5927.9364949031 -2.14E-04
     8 OT DIIS     0.15E+00   17.9     0.00000731     -5927.9366365791 -1.42E-04
     9 OT DIIS     0.15E+00   18.0     0.00001151     -5927.9366873913 -5.08E-05
    10 OT DIIS     0.15E+00   17.9     0.00000553     -5927.9367332266 -4.58E-05
    11 OT DIIS     0.15E+00   17.9     0.00000494     -5927.9367573235 -2.41E-05
    12 OT DIIS     0.15E+00   17.9     0.00000494     -5927.9367751205 -1.78E-05
    13 OT DIIS     0.15E+00   17.9     0.00000389     -5927.9367917014 -1.66E-05
    14 OT DIIS     0.15E+00   17.9     0.00000362     -5927.9368001676 -8.47E-06
    15 OT DIIS     0.15E+00   17.9     0.00000272     -5927.9368113038 -1.11E-05
    16 OT DIIS     0.15E+00   17.9     0.00000258     -5927.9368189837 -7.68E-06
    17 OT DIIS     0.15E+00   17.9     0.00000198     -5927.9368258237 -6.84E-06
    18 OT DIIS     0.15E+00   17.9     0.00000202     -5927.9368324376 -6.61E-06
    19 OT DIIS     0.15E+00   17.9     0.00000200     -5927.9368373683 -4.93E-06
    20 OT DIIS     0.15E+00   17.9     0.00000186     -5927.9368397203 -2.35E-06
    21 OT DIIS     0.15E+00   17.8     0.00000148     -5927.9368436255 -3.91E-06
    22 OT DIIS     0.15E+00   17.9     0.00000152     -5927.9368452932 -1.67E-06
    23 OT DIIS     0.15E+00   17.9     0.00000134     -5927.9368469582 -1.66E-06
    24 OT DIIS     0.15E+00   17.9     0.00000112     -5927.9368483520 -1.39E-06
    25 OT DIIS     0.15E+00   17.9     0.00000095     -5927.9368496092 -1.26E-06

  *** SCF run converged in    25 steps ***


  Electronic density on regular grids:      -3474.0000000016       -0.0000000016
  Core density on regular grids:             3473.9999999951       -0.0000000049
  Total charge density on r-space grids:       -0.0000000064
  Total charge density g-space grids:          -0.0000000054

  Overlap energy of the core charge distribution:               0.00000032662955
  Self energy of the core charge distribution:             -13965.50565932552126
  Core Hamiltonian energy:                                   3144.12203393118943
  Hartree energy:                                            6203.41383454668994
  Exchange-correlation energy:                              -1307.49403740123580
  Dispersion energy:                                           -2.47302168695123

  Total energy:                                             -5927.93684960919927

  outer SCF iter =    1 RMS gradient =   0.95E-06 energy =      -5927.9368496092
  outer SCF loop converged in   1 iterations or   25 steps


 ENERGY| Total FORCE_EVAL ( QS ) energy (a.u.):            -5927.936850495677390


 --------  Informations at step =     6 ------------
  Optimization Method        =                 BFGS
  Total Energy               =     -5927.9368504957
  Real energy change         =        -0.0008333734
  Predicted change in energy =        -0.0007172283
  Scaling factor             =         0.0000000000
  Step size                  =         0.1425709530
  Trust radius               =         0.4724315332
  Decrease in energy         =                  YES
  Used time                  =              487.340

  Convergence check :
  Max. step size             =         0.1425709530
  Conv. limit for step size  =         0.0030000000
  Convergence in step size   =                   NO
  RMS step size              =         0.0076223765
  Conv. limit for RMS step   =         0.0015000000
  Convergence in RMS step    =                   NO
  Max. gradient              =         0.0034841422
  Conv. limit for gradients  =         0.0004500000
  Conv. for gradients        =                   NO
  RMS gradient               =         0.0002455207
  Conv. limit for RMS grad.  =         0.0003000000
  Conv. in RMS gradients     =                  YES
 ---------------------------------------------------

 --------------------------
 OPTIMIZATION STEP:      7
 --------------------------

 Number of electrons:                                                       3474
 Number of occupied orbitals:                                               1737
 Number of molecular orbitals:                                              1737

 Number of orbital functions:                                               7524
 Number of independent orbital functions:                                   7524

 Extrapolation method: ASPC


 SCF WAVEFUNCTION OPTIMIZATION

  ----------------------------------- OT ---------------------------------------
  Minimizer      : DIIS                : direct inversion
                                         in the iterative subspace
                                         using   8 DIIS vectors
                                         safer DIIS on
  Preconditioner : FULL_KINETIC        : inversion of T + eS
  Precond_solver : DEFAULT
  stepsize       :    0.15000000                  energy_gap     :    0.00010000
  eps_taylor     :   0.10000E-15                  max_taylor     :             4
  ----------------------------------- OT ---------------------------------------

  Step     Update method      Time    Convergence         Total energy    Change
  ------------------------------------------------------------------------------
     1 OT DIIS     0.15E+00   17.4     0.00001536     -5927.9367208032 -5.93E+03
     2 OT DIIS     0.15E+00   17.7     0.00001761     -5927.9370664968 -3.46E-04
     3 OT DIIS     0.15E+00   17.9     0.00002275     -5927.9371186039 -5.21E-05
     4 OT DIIS     0.15E+00   17.9     0.00001731     -5927.9373896717 -2.71E-04
     5 OT DIIS     0.15E+00   17.9     0.00000973     -5927.9375090086 -1.19E-04
     6 OT DIIS     0.15E+00   17.9     0.00000966     -5927.9375603837 -5.14E-05
     7 OT DIIS     0.15E+00   17.9     0.00000474     -5927.9376291376 -6.88E-05
     8 OT DIIS     0.15E+00   17.9     0.00000721     -5927.9376508575 -2.17E-05
     9 OT DIIS     0.15E+00   17.9     0.00000327     -5927.9376681046 -1.72E-05
    10 OT DIIS     0.15E+00   17.9     0.00000267     -5927.9376821518 -1.40E-05
    11 OT DIIS     0.15E+00   17.9     0.00000294     -5927.9376852780 -3.13E-06
    12 OT DIIS     0.15E+00   17.9     0.00000218     -5927.9376900253 -4.75E-06
    13 OT DIIS     0.15E+00   17.9     0.00000231     -5927.9376932684 -3.24E-06
    14 OT DIIS     0.15E+00   17.9     0.00000150     -5927.9376958484 -2.58E-06
    15 OT DIIS     0.15E+00   17.9     0.00000151     -5927.9376978962 -2.05E-06
    16 OT DIIS     0.15E+00   17.9     0.00000106     -5927.9376999995 -2.10E-06
    17 OT DIIS     0.15E+00   17.9     0.00000110     -5927.9377017807 -1.78E-06
    18 OT DIIS     0.15E+00   17.9     0.00000109     -5927.9377028459 -1.07E-06
    19 OT DIIS     0.15E+00   17.9     0.00000085     -5927.9377042692 -1.42E-06

  *** SCF run converged in    19 steps ***


  Electronic density on regular grids:      -3474.0000000019       -0.0000000019
  Core density on regular grids:             3473.9999999952       -0.0000000048
  Total charge density on r-space grids:       -0.0000000068
  Total charge density g-space grids:          -0.0000000057

  Overlap energy of the core charge distribution:               0.00000032686641
  Self energy of the core charge distribution:             -13965.50565932552126
  Core Hamiltonian energy:                                   3144.15072354189579
  Hartree energy:                                            6203.39385595205658
  Exchange-correlation energy:                              -1307.50356391816240
  Dispersion energy:                                           -2.47306084637457

  Total energy:                                             -5927.93770426923948

  outer SCF iter =    1 RMS gradient =   0.85E-06 energy =      -5927.9377042692
  outer SCF loop converged in   1 iterations or   19 steps


 ENERGY| Total FORCE_EVAL ( QS ) energy (a.u.):            -5927.937705135636861


 --------  Informations at step =     7 ------------
  Optimization Method        =                 BFGS
  Total Energy               =     -5927.9377051356
  Real energy change         =        -0.0008546400
  Predicted change in energy =        -0.0006278671
  Scaling factor             =         0.0000000000
  Step size                  =         0.1190622372
  Trust radius               =         0.4724315332
  Decrease in energy         =                  YES
  Used time                  =              376.445

  Convergence check :
  Max. step size             =         0.1190622372
  Conv. limit for step size  =         0.0030000000
  Convergence in step size   =                   NO
  RMS step size              =         0.0048414403
  Conv. limit for RMS step   =         0.0015000000
  Convergence in RMS step    =                   NO
  Max. gradient              =         0.0028508348
  Conv. limit for gradients  =         0.0004500000
  Conv. for gradients        =                   NO
  RMS gradient               =         0.0001612352
  Conv. limit for RMS grad.  =         0.0003000000
  Conv. in RMS gradients     =                  YES
 ---------------------------------------------------

 --------------------------
 OPTIMIZATION STEP:      8
 --------------------------

 Number of electrons:                                                       3474
 Number of occupied orbitals:                                               1737
 Number of molecular orbitals:                                              1737

 Number of orbital functions:                                               7524
 Number of independent orbital functions:                                   7524

 Extrapolation method: ASPC


 SCF WAVEFUNCTION OPTIMIZATION

  ----------------------------------- OT ---------------------------------------
  Minimizer      : DIIS                : direct inversion
                                         in the iterative subspace
                                         using   8 DIIS vectors
                                         safer DIIS on
  Preconditioner : FULL_KINETIC        : inversion of T + eS
  Precond_solver : DEFAULT
  stepsize       :    0.15000000                  energy_gap     :    0.00010000
  eps_taylor     :   0.10000E-15                  max_taylor     :             4
  ----------------------------------- OT ---------------------------------------

  Step     Update method      Time    Convergence         Total energy    Change
  ------------------------------------------------------------------------------
     1 OT DIIS     0.15E+00   17.5     0.00003989     -5927.9307973983 -5.93E+03
     2 OT DIIS     0.15E+00   17.9     0.00003007     -5927.9332971695 -2.50E-03
     3 OT DIIS     0.15E+00   17.9     0.00008072     -5927.9337439214 -4.47E-04
     4 OT DIIS     0.15E+00   17.9     0.00002309     -5927.9354174584 -1.67E-03
     5 OT DIIS     0.15E+00   17.9     0.00003671     -5927.9357461151 -3.29E-04
     6 OT DIIS     0.15E+00   17.9     0.00001463     -5927.9362584103 -5.12E-04
     7 OT DIIS     0.15E+00   17.9     0.00001151     -5927.9365176627 -2.59E-04
     8 OT DIIS     0.15E+00   17.9     0.00001393     -5927.9366246878 -1.07E-04
     9 OT DIIS     0.15E+00   17.9     0.00001031     -5927.9367135768 -8.89E-05
    10 OT DIIS     0.15E+00   17.9     0.00000569     -5927.9367949894 -8.14E-05
    11 OT DIIS     0.15E+00   17.9     0.00000477     -5927.9368354139 -4.04E-05
    12 OT DIIS     0.15E+00   17.9     0.00000695     -5927.9368685910 -3.32E-05
    13 OT DIIS     0.15E+00   17.9     0.00000457     -5927.9368858415 -1.73E-05
    14 OT DIIS     0.15E+00   17.9     0.00000466     -5927.9368993678 -1.35E-05
    15 OT DIIS     0.15E+00   17.9     0.00000313     -5927.9369160676 -1.67E-05
    16 OT DIIS     0.15E+00   17.9     0.00000305     -5927.9369267440 -1.07E-05
    17 OT DIIS     0.15E+00   17.9     0.00000235     -5927.9369356661 -8.92E-06
    18 OT DIIS     0.15E+00   17.9     0.00000264     -5927.9369444644 -8.80E-06
    19 OT DIIS     0.15E+00   17.9     0.00000217     -5927.9369497936 -5.33E-06
    20 OT DIIS     0.15E+00   17.9     0.00000161     -5927.9369548237 -5.03E-06
    21 OT DIIS     0.15E+00   17.8     0.00000174     -5927.9369590692 -4.25E-06
    22 OT DIIS     0.15E+00   17.9     0.00000178     -5927.9369604952 -1.43E-06
    23 OT DIIS     0.15E+00   17.9     0.00000150     -5927.9369623902 -1.89E-06
    24 OT DIIS     0.15E+00   17.9     0.00000132     -5927.9369639272 -1.54E-06
    25 OT DIIS     0.15E+00   18.0     0.00000101     -5927.9369653811 -1.45E-06
    26 OT DIIS     0.15E+00   17.9     0.00000105     -5927.9369662564 -8.75E-07
    27 OT DIIS     0.15E+00   17.9     0.00000084     -5927.9369672296 -9.73E-07

  *** SCF run converged in    27 steps ***


  Electronic density on regular grids:      -3474.0000000014       -0.0000000014
  Core density on regular grids:             3473.9999999952       -0.0000000048
  Total charge density on r-space grids:       -0.0000000062
  Total charge density g-space grids:          -0.0000000052

  Overlap energy of the core charge distribution:               0.00000032708918
  Self energy of the core charge distribution:             -13965.50565932552126
  Core Hamiltonian energy:                                   3144.18111144104751
  Hartree energy:                                            6203.37371205838372
  Exchange-correlation energy:                              -1307.51292713976432
  Dispersion energy:                                           -2.47320459085911

  Total energy:                                             -5927.93696722962522

  outer SCF iter =    1 RMS gradient =   0.84E-06 energy =      -5927.9369672296
  outer SCF loop converged in   1 iterations or   27 steps


 ENERGY| Total FORCE_EVAL ( QS ) energy (a.u.):            -5927.936967839751560


 --------  Informations at step =     8 ------------
  Optimization Method        =                 BFGS
  Total Energy               =     -5927.9369678398
  Real energy change         =         0.0007372959
  Predicted change in energy =        -0.0012250159
  Scaling factor             =         0.0000000000
  Step size                  =         0.4462264012
  Trust radius               =         0.4724315332
  Decrease in energy         =                   NO
  Used time                  =              527.329

  Convergence check :
  Max. step size             =         0.4462264012
  Conv. limit for step size  =         0.0030000000
  Convergence in step size   =                   NO
  RMS step size              =         0.0180479688
  Conv. limit for RMS step   =         0.0015000000
  Convergence in RMS step    =                   NO
  Max. gradient              =         0.0055028435
  Conv. limit for gradients  =         0.0004500000
  Conv. for gradients        =                   NO
  RMS gradient               =         0.0003372077
  Conv. limit for RMS grad.  =         0.0003000000
  Conv. for gradients        =                   NO
 ---------------------------------------------------

 --------------------------
 OPTIMIZATION STEP:      9
 --------------------------

 Number of electrons:                                                       3474
 Number of occupied orbitals:                                               1737
 Number of molecular orbitals:                                              1737

 Number of orbital functions:                                               7524
 Number of independent orbital functions:                                   7524

 Extrapolation method: ASPC


 SCF WAVEFUNCTION OPTIMIZATION

  ----------------------------------- OT ---------------------------------------
  Minimizer      : DIIS                : direct inversion
                                         in the iterative subspace
                                         using   8 DIIS vectors
                                         safer DIIS on
  Preconditioner : FULL_KINETIC        : inversion of T + eS
  Precond_solver : DEFAULT
  stepsize       :    0.15000000                  energy_gap     :    0.00010000
  eps_taylor     :   0.10000E-15                  max_taylor     :             4
  ----------------------------------- OT ---------------------------------------

  Step     Update method      Time    Convergence         Total energy    Change
  ------------------------------------------------------------------------------
     1 OT DIIS     0.15E+00   17.5     0.00011756     -5927.8817184581 -5.93E+03
     2 OT DIIS     0.15E+00   17.9     0.00008290     -5927.9039090242 -2.22E-02
     3 OT DIIS     0.15E+00   17.9     0.00015000     -5927.9178477381 -1.39E-02
     4 OT DIIS     0.15E+00   17.9     0.00008058     -5927.9237913205 -5.94E-03
     5 OT DIIS     0.15E+00   17.9     0.00008634     -5927.9290014138 -5.21E-03
     6 OT DIIS     0.15E+00   18.0     0.00005428     -5927.9317914420 -2.79E-03
     7 OT DIIS     0.15E+00   17.9     0.00003081     -5927.9343291120 -2.54E-03
     8 OT DIIS     0.15E+00   18.0     0.00002864     -5927.9355416159 -1.21E-03
     9 OT DIIS     0.15E+00   18.0     0.00003075     -5927.9364309408 -8.89E-04
    10 OT DIIS     0.15E+00   18.2     0.00002241     -5927.9368534083 -4.22E-04
    11 OT DIIS     0.15E+00   18.2     0.00001336     -5927.9372217443 -3.68E-04
    12 OT DIIS     0.15E+00   18.2     0.00001471     -5927.9375457324 -3.24E-04
    13 OT DIIS     0.15E+00   18.2     0.00001475     -5927.9376392866 -9.36E-05
    14 OT DIIS     0.15E+00   18.2     0.00001307     -5927.9377807266 -1.41E-04
    15 OT DIIS     0.15E+00   18.2     0.00000982     -5927.9378777040 -9.70E-05
    16 OT DIIS     0.15E+00   18.2     0.00000795     -5927.9379635985 -8.59E-05
    17 OT DIIS     0.15E+00   18.2     0.00000698     -5927.9380211623 -5.76E-05
    18 OT DIIS     0.15E+00   18.2     0.00000557     -5927.9380849779 -6.38E-05
    19 OT DIIS     0.15E+00   18.2     0.00000644     -5927.9381189067 -3.39E-05
    20 OT DIIS     0.15E+00   18.2     0.00000561     -5927.9381424896 -2.36E-05
    21 OT DIIS     0.15E+00   18.1     0.00000411     -5927.9381666511 -2.42E-05
    22 OT DIIS     0.15E+00   18.2     0.00000448     -5927.9381796883 -1.30E-05
    23 OT DIIS     0.15E+00   18.2     0.00000381     -5927.9381885989 -8.91E-06
    24 OT DIIS     0.15E+00   18.2     0.00000368     -5927.9381977267 -9.13E-06
    25 OT DIIS     0.15E+00   18.2     0.00000264     -5927.9382041586 -6.43E-06
    26 OT DIIS     0.15E+00   18.2     0.00000263     -5927.9382100557 -5.90E-06
    27 OT DIIS     0.15E+00   18.2     0.00000216     -5927.9382145170 -4.46E-06
    28 OT DIIS     0.15E+00   18.2     0.00000192     -5927.9382184498 -3.93E-06
    29 OT DIIS     0.15E+00   18.2     0.00000207     -5927.9382209005 -2.45E-06
    30 OT DIIS     0.15E+00   18.2     0.00000152     -5927.9382236341 -2.73E-06

  Leaving inner SCF loop after reaching    30 steps.


  Electronic density on regular grids:      -3474.0000000016       -0.0000000016
  Core density on regular grids:             3473.9999999952       -0.0000000048
  Total charge density on r-space grids:       -0.0000000064
  Total charge density g-space grids:          -0.0000000053

  Overlap energy of the core charge distribution:               0.00000032708387
  Self energy of the core charge distribution:             -13965.50565932552126
  Core Hamiltonian energy:                                   3144.17840990641344
  Hartree energy:                                            6203.37492019943238
  Exchange-correlation energy:                              -1307.51277891124187
[...]
 flops     6 x     9 x    13          14603081220       0.0%    100.0%      0.0%
 flops    13 x     9 x     6          14603081220       0.0%    100.0%      0.0%
 flops     6 x    32 x     6          18668371968       0.0%    100.0%      0.0%
 flops    13 x    32 x    32          77014499328       0.0%    100.0%      0.0%
 flops     6 x    13 x   416         158330535168       0.0%    100.0%      0.0%
 flops    13 x     6 x   416         158436120960       0.0%    100.0%      0.0%
 flops     6 x    13 x   425         161755955400       0.0%    100.0%      0.0%
 flops    13 x     6 x   425         161863825500       0.0%    100.0%      0.0%
 flops     6 x    13 x   448         341019614208       0.0%    100.0%      0.0%
 flops    13 x     6 x   448         341247029760       0.0%    100.0%      0.0%
 flops   416 x   416 x   416        1506345877504     100.0%      0.0%      0.0%
 flops   416 x   416 x   425        1538935091200     100.0%      0.0%      0.0%
 flops   416 x   425 x   416        1538935091200     100.0%      0.0%      0.0%
 flops   425 x   416 x   416        1538935091200     100.0%      0.0%      0.0%
 flops   416 x   425 x   425        1572229360000     100.0%      0.0%      0.0%
 flops   425 x   416 x   425        1572229360000     100.0%      0.0%      0.0%
 flops   425 x   425 x   416        1572229360000     100.0%      0.0%      0.0%
 flops   425 x   425 x   425        1606243937500     100.0%      0.0%      0.0%
 flops    13 x     9 x    13        2416003338060       0.0%    100.0%      0.0%
 flops     6 x    32 x    13        2803791594240       0.0%    100.0%      0.0%
 flops    13 x    32 x     6        2803791594240       0.0%    100.0%      0.0%
 flops   416 x   416 x   448        3244437274624     100.0%      0.0%      0.0%
 flops   416 x   448 x   416        3244437274624     100.0%      0.0%      0.0%
 flops   448 x   416 x   416        3244437274624     100.0%      0.0%      0.0%
 flops   416 x   425 x   448        3314629427200     100.0%      0.0%      0.0%
 flops   416 x   448 x   425        3314629427200     100.0%      0.0%      0.0%
 flops   425 x   416 x   448        3314629427200     100.0%      0.0%      0.0%
 flops   425 x   448 x   416        3314629427200     100.0%      0.0%      0.0%
 flops   448 x   416 x   425        3314629427200     100.0%      0.0%      0.0%
 flops   448 x   425 x   416        3314629427200     100.0%      0.0%      0.0%
 flops   425 x   425 x   448        3386340160000     100.0%      0.0%      0.0%
 flops   425 x   448 x   425        3386340160000     100.0%      0.0%      0.0%
 flops   448 x   425 x   425        3386340160000     100.0%      0.0%      0.0%
 flops   448 x   448 x   416        6988018745344     100.0%      0.0%      0.0%
 flops   416 x   448 x   448        6988018745344     100.0%      0.0%      0.0%
 flops   448 x   416 x   448        6988018745344     100.0%      0.0%      0.0%
 flops   448 x   448 x   425        7139201843200     100.0%      0.0%      0.0%
 flops   425 x   448 x   448        7139201843200     100.0%      0.0%      0.0%
 flops   448 x   425 x   448        7139201843200     100.0%      0.0%      0.0%
 flops   416 x   416 x  1878        9213076414464     100.0%      0.0%      0.0%
 flops   416 x   416 x  1884        9242511163392     100.0%      0.0%      0.0%
 flops   416 x   425 x  1878        9412397779200     100.0%      0.0%      0.0%
 flops   425 x   416 x  1878        9412397779200     100.0%      0.0%      0.0%
 flops   416 x   425 x  1884        9442469337600     100.0%      0.0%      0.0%
 flops   425 x   416 x  1884        9442469337600     100.0%      0.0%      0.0%
 flops   425 x   425 x  1878        9616031385000     100.0%      0.0%      0.0%
 flops   425 x   425 x  1884        9646753530000     100.0%      0.0%      0.0%
 flops  1878 x   416 x   416       11425670750208     100.0%      0.0%      0.0%
 flops  1884 x   416 x   416       11462174490624     100.0%      0.0%      0.0%
 flops  1878 x   416 x   425       11672860742400     100.0%      0.0%      0.0%
 flops  1878 x   425 x   416       11672860742400     100.0%      0.0%      0.0%
 flops  1884 x   416 x   425       11710154227200     100.0%      0.0%      0.0%
 flops  1884 x   425 x   416       11710154227200     100.0%      0.0%      0.0%
 flops  1878 x   425 x   425       11925398595000     100.0%      0.0%      0.0%
 flops  1884 x   425 x   425       11963498910000     100.0%      0.0%      0.0%
 flops   448 x   448 x   448       15051117297664     100.0%      0.0%      0.0%
 flops   416 x   448 x  1878       19843549200384     100.0%      0.0%      0.0%
 flops   448 x   416 x  1878       19843549200384     100.0%      0.0%      0.0%
 flops   416 x   448 x  1884       19906947121152     100.0%      0.0%      0.0%
 flops   448 x   416 x  1884       19906947121152     100.0%      0.0%      0.0%
 flops   425 x   448 x  1878       20272856755200     100.0%      0.0%      0.0%
 flops   448 x   425 x  1878       20272856755200     100.0%      0.0%      0.0%
 flops   425 x   448 x  1884       20337626265600     100.0%      0.0%      0.0%
 flops   448 x   425 x  1884       20337626265600     100.0%      0.0%      0.0%
 flops  1878 x   416 x  1878       22160343269376     100.0%      0.0%      0.0%
 flops  1878 x   416 x  1884       22231143088128     100.0%      0.0%      0.0%
 flops  1884 x   416 x  1878       22231143088128     100.0%      0.0%      0.0%
 flops  1884 x   416 x  1884       22302169104384     100.0%      0.0%      0.0%
 flops  1878 x   425 x  1878       22639773772800     100.0%      0.0%      0.0%
 flops  1878 x   425 x  1884       22712105318400     100.0%      0.0%      0.0%
 flops  1884 x   425 x  1878       22712105318400     100.0%      0.0%      0.0%
 flops  1884 x   425 x  1884       22784667955200     100.0%      0.0%      0.0%
 flops  1878 x   448 x   416       24609137000448     100.0%      0.0%      0.0%
 flops  1878 x   416 x   448       24609137000448     100.0%      0.0%      0.0%
 flops  1884 x   416 x   448       24687760441344     100.0%      0.0%      0.0%
 flops  1884 x   448 x   416       24687760441344     100.0%      0.0%      0.0%
 flops  1878 x   448 x   425       25141546214400     100.0%      0.0%      0.0%
 flops  1878 x   425 x   448       25141546214400     100.0%      0.0%      0.0%
 flops  1884 x   425 x   448       25221870643200     100.0%      0.0%      0.0%
 flops  1884 x   448 x   425       25221870643200     100.0%      0.0%      0.0%
 flops    13 x    13 x   416       26282719155264       0.0%    100.0%      0.0%
 flops    13 x    13 x   425       26851335675450       0.0%    100.0%      0.0%
 flops   448 x   448 x  1878       42739952123904     100.0%      0.0%      0.0%
 flops   448 x   448 x  1884       42876501491712     100.0%      0.0%      0.0%
 flops  1878 x   448 x  1878       47729970118656     100.0%      0.0%      0.0%
 flops  1878 x   448 x  1884       47882462035968     100.0%      0.0%      0.0%
 flops  1884 x   448 x  1878       47882462035968     100.0%      0.0%      0.0%
 flops  1884 x   448 x  1884       48035441147904     100.0%      0.0%      0.0%
 flops  1878 x   448 x   448       53004295077888     100.0%      0.0%      0.0%
 flops  1884 x   448 x   448       53173637873664     100.0%      0.0%      0.0%
 flops    13 x    13 x   448       56608933565184       0.0%    100.0%      0.0%
 flops    13 x    32 x    13      463872640907520       0.0%    100.0%      0.0%
 flops inhomo. stacks                           0       0.0%      0.0%      0.0%
 flops total                         1.784863E+15      67.3%     32.7%      0.0%
 flops max/rank                    118.344005E+12      66.3%     33.7%      0.0%
 matmuls inhomo. stacks                         0       0.0%      0.0%      0.0%
 matmuls total                        45606377342       0.0%    100.0%      0.0%
 number of processed stacks              49072898       3.7%     96.3%      0.0%
 average stack size                                     1.0     964.8       0.0
 marketing flops                     2.414245E+15
 -------------------------------------------------------------------------------
 # multiplications                          34536
 max memory usage/rank               2.059465E+09
 # max total images/rank                        1
 # max 3D layers                                1
 # MPI messages exchanged                 3315456
 MPI messages size (bytes):
  total size                        18.331176E+12
  min size                           0.000000E+00
  max size                          28.395648E+06
  average size                       5.529006E+06
 MPI breakdown and total messages size (bytes):
             size <=      128               12276                        0
       128 < size <=     8192                   0                        0
      8192 < size <=    32768                   0                        0
     32768 < size <=   131072                1116                123601464
    131072 < size <=  4194304             1426224            2151579419928
   4194304 < size <= 16777216             1710192           12285930664032
  16777216 < size                          165648            3897941479440
 -------------------------------------------------------------------------------

 MEMORY| Estimated peak process memory [MiB]                                1965

 -------------------------------------------------------------------------------
 -                                                                             -
 -                         MESSAGE PASSING PERFORMANCE                         -
 -                                                                             -
 -------------------------------------------------------------------------------

 ROUTINE             CALLS      AVE VOLUME [Bytes]
 MP_Group             1197
 MP_Bcast            14819                  28723.
 MP_Allreduce       229403                    310.
 MP_Sync                 4
 MP_Alltoall        151946               36098112.
 MP_SendRecv          4800                  25840.
 MP_ISendRecv       112530                 730080.
 MP_Wait           1854551
 MP_ISend           613508                2372901.
 MP_IRecv           613508                2378417.
 MP_Recv             10251                1344779.
 MP_Memory         1521054
 -------------------------------------------------------------------------------


 -------------------------------------------------------------------------------
 -                                                                             -
 -                           R E F E R E N C E S                               -
 -                                                                             -
 -------------------------------------------------------------------------------
 
 CP2K version 7.0 (Development Version), the CP2K developers group (2018).
 CP2K is freely available from https://www.cp2k.org/ .

 Schuett, Ole; Messmer, Peter; Hutter, Juerg; VandeVondele, Joost. 
 Electronic Structure Calculations on Graphics Processing Units, John Wiley & Sons, Ltd, 173-190 (2016). 
 GPU-Accelerated Sparse Matrix-Matrix Multiplication for Linear Scaling Density Functional Theory.
 http://dx.doi.org/10.1002/9781118670712.ch8


 Borstnik, U; VandeVondele, J; Weber, V; Hutter, J. 
 PARALLEL COMPUTING, 40 (5-6), 47-58 (2014). 
 Sparse matrix multiplication: The distributed block-compressed sparse
 row library.
 http://dx.doi.org/10.1016/j.parco.2014.03.012


 Hutter, J; Iannuzzi, M; Schiffmann, F; VandeVondele, J. 
 WILEY INTERDISCIPLINARY REVIEWS-COMPUTATIONAL MOLECULAR SCIENCE, 4 (1), 15-25 (2014). 
 CP2K: atomistic simulations of condensed matter systems.
 http://dx.doi.org/10.1002/wcms.1159


 Grimme, S; Ehrlich, S; Goerigk, L. 
 JOURNAL OF COMPUTATIONAL CHEMISTRY, 32, 1456 (2011). 
 Effect of the damping function in dispersion corrected density functional theory.
 http://dx.doi.org/10.1002/jcc.21759


 Grimme, S; Antony, J; Ehrlich, S; Krieg, H. 
 JOURNAL OF CHEMICAL PHYSICS, 132 (15), 154104 (2010). 
 A consistent and accurate ab initio parametrization of density
 functional dispersion correction (DFT-D) for the 94 elements H-Pu.
 http://dx.doi.org/10.1063/1.3382344


 VandeVondele, J; Hutter, J. 
 JOURNAL OF CHEMICAL PHYSICS, 127 (11), 114105 (2007). 
 Gaussian basis sets for accurate calculations on molecular systems in
 gas and condensed phases.
 http://dx.doi.org/10.1063/1.2770708


 Krack, M. 
 THEORETICAL CHEMISTRY ACCOUNTS, 114 (1-3), 145-152 (2005). 
 Pseudopotentials for H to Kr optimized for gradient-corrected
 exchange-correlation functionals.
 http://dx.doi.org/10.1007/s00214-005-0655-y


 VandeVondele, J; Krack, M; Mohamed, F; Parrinello, M; Chassaing, T;
 Hutter, J. COMPUTER PHYSICS COMMUNICATIONS, 167 (2), 103-128 (2005). 
 QUICKSTEP: Fast and accurate density functional calculations using a
 mixed Gaussian and plane waves approach.
 http://dx.doi.org/10.1016/j.cpc.2004.12.014


 Frigo, M; Johnson, SG. 
 PROCEEDINGS OF THE IEEE, 93 (2), 216-231 (2005). 
 The design and implementation of FFTW3.
 http://dx.doi.org/10.1109/JPROC.2004.840301


 Kolafa, J. 
 JOURNAL OF COMPUTATIONAL CHEMISTRY, 25 (3), 335-342 (2004). 
 Time-reversible always stable predictor-corrector method for molecular dynamics of polarizable molecules.
 http://dx.doi.org/10.1002/jcc.10385


 VandeVondele, J; Hutter, J. 
 JOURNAL OF CHEMICAL PHYSICS, 118 (10), 4365-4369 (2003). 
 An efficient orbital transformation method for electronic structure
 calculations.
 http://dx.doi.org/10.1063/1.1543154


 Hartwigsen, C; Goedecker, S; Hutter, J. 
 PHYSICAL REVIEW B, 58 (7), 3641-3662 (1998). 
 Relativistic separable dual-space Gaussian pseudopotentials from H to Rn.
 http://dx.doi.org/10.1103/PhysRevB.58.3641


 Lippert, G; Hutter, J; Parrinello, M. 
 MOLECULAR PHYSICS, 92 (3), 477-487 (1997). 
 A hybrid Gaussian and plane wave density functional scheme.
 http://dx.doi.org/10.1080/002689797170220


 Perdew, JP; Burke, K; Ernzerhof, M. 
 PHYSICAL REVIEW LETTERS, 77 (18), 3865-3868 (1996). 
 Generalized gradient approximation made simple.
 http://dx.doi.org/10.1103/PhysRevLett.77.3865


 Goedecker, S; Teter, M; Hutter, J. 
 PHYSICAL REVIEW B, 54 (3), 1703-1710 (1996). 
 Separable dual-space Gaussian pseudopotentials.
 http://dx.doi.org/10.1103/PhysRevB.54.1703


 -------------------------------------------------------------------------------
 -                                                                             -
 -                                T I M I N G                                  -
 -                                                                             -
 -------------------------------------------------------------------------------
 SUBROUTINE                       CALLS  ASD         SELF TIME        TOTAL TIME
                                MAXIMUM       AVERAGE  MAXIMUM  AVERAGE  MAXIMUM
 CP2K                                 1  1.0     0.26     0.27 35430.80 35430.86
 cp_geo_opt                           1  2.0     0.02     0.02 35428.01 35428.08
 geoopt_bfgs                          1  3.0     0.23     0.34 35428.00 35428.06
 cp_eval_at                          81  4.0     0.06     0.08 35318.86 35318.95
 qs_forces                           80  5.0     0.02     0.02 35143.02 35143.08
 qs_energies                         81  6.0     0.01     0.02 34055.11 34057.76
 scf_env_do_scf                      81  7.0     0.02     0.05 33018.49 33019.02
 scf_env_do_scf_inner_loop         1795  8.0     0.27     0.68 31409.22 31718.69
 rebuild_ks_matrix                 1875  9.9     0.01     0.01 19536.03 19614.15
 qs_ks_build_kohn_sham_matrix      1875 10.9     0.29     0.31 19536.02 19614.14
 qs_ks_update_qs_env               1888  9.0     0.02     0.03 18618.92 18693.70
 pw_transfer                      35711 13.5     3.89     4.48 13200.60 13249.54
 fft_wrap_pw1pw2                  31961 14.6     0.48     0.52 13081.60 13129.83
 fft_wrap_pw1pw2_150              20708 15.7   967.70   994.53 12571.06 12644.58
 qs_vxc_create                     1875 11.9     0.05     0.06 10887.94 10904.48
 xc_vxc_pw_create                  1875 12.9   135.97   143.98 10887.89 10904.43
 fft3d_ps                         31961 16.6  5735.09  5913.75  9620.01  9781.72
 dbcsr_multiply_generic           34536 14.0     2.68     2.91  7824.49  7906.35
 qs_rho_update_rho                 1876  9.0     0.02     0.03  7213.35  7289.39
 calculate_rho_elec                1876 10.0  3800.58  3869.06  7213.34  7289.37
 qs_scf_new_mos                    1795  9.0     0.02     0.03  6776.72  6901.68
 qs_scf_loop_do_ot                 1795 10.0     0.01     0.02  6776.71  6901.66
 multiply_cannon                  34536 15.0     5.36     6.02  6627.62  6894.27
 multiply_cannon_multrec         138144 16.0  5883.28  6208.95  5883.85  6209.49
 ot_scf_mini                       1795 11.0     0.10     0.11  6082.09  6196.03
 sum_up_and_integrate              1875 11.9    28.38    29.29  5911.69  5913.25
 integrate_v_rspace                1875 12.9  3816.42  3891.04  5883.31  5885.56
 xc_rho_set_and_dset_create        1875 13.9    49.60    51.33  5792.06  5837.66
 ot_mini                           1795 12.0     0.01     0.02  3920.95  4047.75
 density_rs2pw                     1876 11.0     0.11     0.12  3066.18  3148.81
 qs_ot_get_derivative              1795 13.0     0.02     0.03  2507.39  2622.06
 x_to_yz                          16876 18.1  1641.77  1678.28  2257.02  2360.50
 potential_pw2rs                   1875 13.9     3.91     4.23  1919.15  1921.09
 yz_to_x                          15085 17.1   980.01  1022.37  1627.22  1807.96
 xc_functional_eval                1875 14.9     0.04     0.05  1707.46  1749.56
 pbe_lda_eval                      1875 15.9  1707.41  1749.52  1707.41  1749.52
 qs_ot_get_derivative_taylor       1668 14.0     0.08     0.10  1537.79  1644.43
 mp_alltoall_z22v                 31961 18.6  1262.46  1558.14  1262.46  1558.14
 pw_gather_p                      15085 16.1  1273.80  1475.31  1273.80  1475.31
 ot_diis_step                      1795 13.0     0.11     0.12  1406.53  1406.53
 apply_preconditioner_dbcsr        1888 14.0     0.00     0.01  1309.95  1335.09
 apply_single                      1888 15.0     0.01     0.01  1309.95  1335.09
 init_scf_loop                       93  8.0     0.00     0.00  1301.26  1301.59
 pw_scatter_p                     16876 17.1  1187.61  1258.91  1187.61  1258.91
 rs_pw_transfer                   15165 13.4     0.34     0.38  1045.94  1144.16
 qs_ks_update_qs_env_forces          80  6.0     0.00     0.00   930.40   933.70
 mp_waitall_1                   1793247 17.5   721.72   809.49   721.72   809.49
 calculate_dm_sparse               1876 11.0     0.01     0.02   728.26   797.63
 make_m2s                         69072 15.0     2.09     2.36   760.10   779.57
 init_scf_run                        81  7.0     0.00     0.04   770.48   770.50
 scf_env_initial_rho_setup           81  8.0     0.00     0.02   770.48   770.50
 wfi_extrapolate                     81  9.0     0.01     0.01   761.43   761.44
 -------------------------------------------------------------------------------

 The number of warnings for this run is : 1
 
 -------------------------------------------------------------------------------
  **** **** ******  **  PROGRAM ENDED AT                 2024-02-03 02:42:06.036
 ***** ** ***  *** **   PROGRAM RAN ON                                sebnode107
 **    ****   ******    PROGRAM RAN BY                                    luehrs
 ***** **    ** ** **   PROGRAM PROCESS ID                               2494697
  **** **  *******  **  PROGRAM STOPPED IN /home/luehrs/PhD/Li-S_paper/Li-S-Surf
                                           ace_Reaction/Third_Lithiation_of_S8_S
                                           urface/Third_Lithiation_around_Li2S8/
                                           Third_Lithiation_parallel/7.S8_p
