 DBCSR| Multiplication driver                                               XSMM
 DBCSR| Multrec recursion limit                                              512
 DBCSR| Multiplication stack size                                           1000
 DBCSR| Maximum elements for images                                    UNLIMITED
 DBCSR| Multiplicative factor virtual images                                   1
 DBCSR| Multiplication size stacks                                             3
 DBCSR| Number of 3D layers                                               SINGLE
 DBCSR| Use MPI memory allocation                                              T
 DBCSR| Use RMA algorithm                                                      F
 DBCSR| Use Communication thread                                               T
 DBCSR| Communication thread load                                             87


  **** **** ******  **  PROGRAM STARTED AT               2023-10-10 23:45:54.954
 ***** ** ***  *** **   PROGRAM STARTED ON                            sebnode128
 **    ****   ******    PROGRAM STARTED BY                                luehrs
 ***** **    ** ** **   PROGRAM PROCESS ID                               1934321
  **** **  *******  **  PROGRAM STARTED IN /home/luehrs/PhD/Li-S_paper/Li-S-Surf
                                           ace_Reaction/Third_Lithiation_of_S8_S
                                           urface/Third_Lithiation_around_S8/Thi
                                           rd_Lithiation_U4/Third_Lithiation_ort
                                           hogonal/5.S8_o

 CP2K| version string:                    CP2K version 7.0 (Development Version)
 CP2K| source code revision number:                                             
 CP2K| cp2kflags: libint fftw3 libxc parallel mpi3 scalapack xsmm libderiv_max_a
 CP2K|            m1=8 libint_max_am=9 max_contr=4
 CP2K| is freely available from                            https://www.cp2k.org/
 CP2K| Program compiled at                         Sun Jun 24 14:37:16 CEST 2018
 CP2K| Program compiled on                                            sebstorage
 CP2K| Program compiled for                                Linux-x86-64-gfortran
 CP2K| Data directory path    /home/brehm/Software_Batchnode/2018/Source/cp2k_18
 CP2K| Input file name                                                input5.inp

 GLOBAL| Force Environment number                                              1
 GLOBAL| Basis set file name                                      ./BASIS_MOLOPT
 GLOBAL| Potential file name                                    ./GTH_POTENTIALS
 GLOBAL| MM Potential file name                                     MM_POTENTIAL
 GLOBAL| Coordinate file name              ./Third_lithiation_S8_5.o_relaxed.xyz
 GLOBAL| Method name                                                        CP2K
 GLOBAL| Project name                                                   Li_react
 GLOBAL| Preferred FFT library                                             FFTW3
 GLOBAL| Preferred diagonalization lib.                                       SL
 GLOBAL| Run type                                                        GEO_OPT
 GLOBAL| All-to-all communication in single precision                          F
 GLOBAL| FFTs using library dependent lengths                                  F
 GLOBAL| Global print level                                                  LOW
 GLOBAL| Total number of message passing processes                            16
 GLOBAL| Number of threads for this process                                    1
 GLOBAL| This output is from process                                           0
 GLOBAL| CPU model name :  AMD EPYC 7513 32-Core Processor

 MEMORY| system memory details [Kb]
 MEMORY|                        rank 0           min           max       average
 MEMORY| MemTotal            131916392     131916392     131916392     131916392
 MEMORY| MemFree              34101608      34101608      34105704      34103400
 MEMORY| Buffers                 71716         71716         71716         71716
 MEMORY| Cached                2292216       2292216       2292216       2292216
 MEMORY| Slab                  2198596       2198596       2198596       2198596
 MEMORY| SReclaimable           335384        335384        335384        335384
 MEMORY| MemLikelyFree        36800924      36800924      36805020      36802716


 GENERATE|  Preliminary Number of Bonds generated:                             0
 GENERATE|  Achieved consistency in connectivity generation.

 *******************************************************************************
 *******************************************************************************
 **                                                                           **
 **     #####                         ##              ##                      **
 **    ##   ##            ##          ##              ##                      **
 **   ##     ##                       ##            ######                    **
 **   ##     ##  ##   ##  ##   #####  ##  ##   ####   ##    #####    #####    **
 **   ##     ##  ##   ##  ##  ##      ## ##   ##      ##   ##   ##  ##   ##   **
 **   ##  ## ##  ##   ##  ##  ##      ####     ###    ##   ######   ######    **
 **    ##  ###   ##   ##  ##  ##      ## ##      ##   ##   ##       ##        **
 **     #######   #####   ##   #####  ##  ##  ####    ##    #####   ##        **
 **           ##                                                    ##        **
 **                                                                           **
 **                                                ... make the atoms dance   **
 **                                                                           **
 **            Copyright (C) by CP2K developers group (2000 - 2018)           **
 **                                                                           **
 *******************************************************************************


 TOTAL NUMBERS AND MAXIMUM NUMBERS

  Total number of            - Atomic kinds:                                   2
                             - Atoms:                                        582
                             - Shell sets:                                   582
                             - Shells:                                      2904
                             - Primitive Cartesian functions:               3486
                             - Cartesian basis functions:                   8100
                             - Spherical basis functions:                   7524

  Maximum angular momentum of- Orbital basis functions:                        2
                             - Local part of the GTH pseudopotential:          6
                             - Non-local part of the GTH pseudopotential:      2


 SCF PARAMETERS         Density guess:                                   RESTART
                        --------------------------------------------------------
                        max_scf:                                              30
                        max_scf_history:                                       0
                        max_diis:                                              4
                        --------------------------------------------------------
                        eps_scf:                                        1.00E-06
                        eps_scf_history:                                0.00E+00
                        eps_diis:                                       1.00E-01
                        eps_eigval:                                     1.00E-05
                        --------------------------------------------------------
                        level_shift [a.u.]:                                 0.00
                        --------------------------------------------------------
                        Outer loop SCF in use 
                        No variables optimised in outer loop
                        eps_scf                                         1.00E-06
                        max_scf                                               25
                        DIIS optimization
                        DIIS buffer length                                     3
                        step_size                                       5.00E-01

 BFGS| Use rational function optimization for step estimation:                NO
 BFGS| Use model Hessian for initial guess:                                  YES
 BFGS| Restart Hessian:                                                       NO
 BFGS| Trust radius:                                                       0.472

 *******************************************************************************
 ***                     STARTING GEOMETRY OPTIMIZATION                      ***
 ***                                   BFGS                                  ***
 *******************************************************************************

 Number of electrons:                                                       3474
 Number of occupied orbitals:                                               1737
 Number of molecular orbitals:                                              1737

 Number of orbital functions:                                               7524
 Number of independent orbital functions:                                   7524

 Extrapolation method: initial_guess

 *** WARNING in qs_initial_guess.F:263 :: User requested to restart the   ***
 *** wavefunction from the file named: Li_react-RESTART.wfn. This file    ***
 *** does not exist. Please check the existence of the file or change     ***
 *** properly the value of the keyword WFN_RESTART_FILE_NAME. Calculation ***
 *** continues using ATOMIC GUESS.                                        ***



 SCF WAVEFUNCTION OPTIMIZATION

  ----------------------------------- OT ---------------------------------------
  Minimizer      : DIIS                : direct inversion
                                         in the iterative subspace
                                         using   8 DIIS vectors
                                         safer DIIS on
  Preconditioner : FULL_KINETIC        : inversion of T + eS
  Precond_solver : DEFAULT
  stepsize       :    0.15000000                  energy_gap     :    0.00010000
  eps_taylor     :   0.10000E-15                  max_taylor     :             4
  ----------------------------------- OT ---------------------------------------

  Step     Update method      Time    Convergence         Total energy    Change
  ------------------------------------------------------------------------------
     1 OT DIIS     0.15E+00   21.3     0.00640909     -5756.6546474425 -5.76E+03
     2 OT DIIS     0.15E+00   19.7     0.02476573     -5757.4407051914 -7.86E-01
     3 OT DIIS     0.15E+00   19.9     0.00653061     -5810.1415230488 -5.27E+01
     4 OT DIIS     0.15E+00   21.3     0.00665683     -5830.0995417439 -2.00E+01
     5 OT DIIS     0.15E+00   21.9     0.00563696     -5846.0344086926 -1.59E+01
     6 OT DIIS     0.15E+00   21.9     0.00400985     -5857.9663643599 -1.19E+01
     7 OT DIIS     0.15E+00   21.7     0.00262652     -5873.8919748833 -1.59E+01
     8 OT DIIS     0.15E+00   21.7     0.00319270     -5883.8769146910 -9.98E+00
     9 OT DIIS     0.15E+00   22.0     0.00197900     -5891.4945980736 -7.62E+00
    10 OT DIIS     0.15E+00   22.5     0.00185969     -5897.2896080864 -5.80E+00
    11 OT DIIS     0.15E+00   22.4     0.00184896     -5900.8569197795 -3.57E+00
    12 OT DIIS     0.15E+00   22.8     0.00170069     -5904.2083950632 -3.35E+00
    13 OT DIIS     0.15E+00   21.8     0.00134112     -5906.8400241060 -2.63E+00
    14 OT DIIS     0.15E+00   21.5     0.00109876     -5910.1241516951 -3.28E+00
    15 OT DIIS     0.15E+00   21.6     0.00100105     -5912.8345449067 -2.71E+00
    16 OT DIIS     0.15E+00   21.7     0.00089045     -5915.0166676200 -2.18E+00
    17 OT DIIS     0.15E+00   21.7     0.00103004     -5916.5876602955 -1.57E+00
    18 OT DIIS     0.15E+00   21.5     0.00080989     -5917.9830245114 -1.40E+00
    19 OT DIIS     0.15E+00   20.6     0.00078730     -5919.0713507694 -1.09E+00
    20 OT DIIS     0.15E+00   21.6     0.00075130     -5920.0964053556 -1.03E+00
    21 OT DIIS     0.15E+00   21.3     0.00071037     -5920.8106201000 -7.14E-01
    22 OT DIIS     0.15E+00   21.8     0.00055865     -5921.7393330971 -9.29E-01
    23 OT DIIS     0.15E+00   21.9     0.00065909     -5922.3919019098 -6.53E-01
    24 OT DIIS     0.15E+00   21.3     0.00048007     -5923.0754713417 -6.84E-01
    25 OT DIIS     0.15E+00   21.4     0.00044294     -5923.6065358291 -5.31E-01
    26 OT DIIS     0.15E+00   21.2     0.00044858     -5924.0732483536 -4.67E-01
    27 OT DIIS     0.15E+00   21.0     0.00041992     -5924.3231702186 -2.50E-01
    28 OT DIIS     0.15E+00   21.6     0.00038777     -5924.6356148298 -3.12E-01
    29 OT DIIS     0.15E+00   20.9     0.00037022     -5924.9101602570 -2.75E-01
    30 OT DIIS     0.15E+00   21.1     0.00036725     -5925.1114794693 -2.01E-01

  Leaving inner SCF loop after reaching    30 steps.


  Electronic density on regular grids:      -3474.0000000009       -0.0000000009
  Core density on regular grids:             3473.9999999952       -0.0000000048
  Total charge density on r-space grids:       -0.0000000057
  Total charge density g-space grids:          -0.0000000047

  Overlap energy of the core charge distribution:               0.00000032685065
  Self energy of the core charge distribution:             -13965.50565932552126
  Core Hamiltonian energy:                                   3147.72531894707481
  Hartree energy:                                            6202.21687370519430
  Exchange-correlation energy:                              -1307.08156769563561
  Dispersion energy:                                           -2.46644542721418

  Total energy:                                             -5925.11147946925030

  outer SCF iter =    1 RMS gradient =   0.37E-03 energy =      -5925.1114794693

  ----------------------------------- OT ---------------------------------------
  Minimizer      : DIIS                : direct inversion
                                         in the iterative subspace
                                         using   8 DIIS vectors
                                         safer DIIS on
  Preconditioner : FULL_KINETIC        : inversion of T + eS
  Precond_solver : DEFAULT
  stepsize       :    0.15000000                  energy_gap     :    0.00010000
  eps_taylor     :   0.10000E-15                  max_taylor     :             4
  ----------------------------------- OT ---------------------------------------

  Step     Update method      Time    Convergence         Total energy    Change
  ------------------------------------------------------------------------------
     1 OT DIIS     0.15E+00   46.5     0.00041102     -5925.3583744129 -2.47E-01
     2 OT DIIS     0.15E+00   21.2     0.00097406     -5925.4943081523 -1.36E-01
     3 OT DIIS     0.15E+00   21.3     0.00046732     -5925.6306294933 -1.36E-01
     4 OT DIIS     0.15E+00   21.9     0.00050631     -5925.7088420255 -7.82E-02
     5 OT DIIS     0.15E+00   20.7     0.00040247     -5925.9254968461 -2.17E-01
     6 OT DIIS     0.15E+00   20.8     0.00038865     -5926.1003586650 -1.75E-01
     7 OT DIIS     0.15E+00   20.9     0.00034374     -5926.2041912088 -1.04E-01
     8 OT DIIS     0.15E+00   21.3     0.00030320     -5926.3104003926 -1.06E-01
     9 OT DIIS     0.15E+00   20.5     0.00030241     -5926.5077215833 -1.97E-01
    10 OT DIIS     0.15E+00   20.7     0.00024364     -5926.5566265220 -4.89E-02
    11 OT DIIS     0.15E+00   22.0     0.00031172     -5926.7022801693 -1.46E-01
    12 OT DIIS     0.15E+00   21.7     0.00026549     -5926.8264404380 -1.24E-01
    13 OT DIIS     0.15E+00   21.7     0.00021055     -5926.9242570950 -9.78E-02
    14 OT DIIS     0.15E+00   20.6     0.00026567     -5927.0071941081 -8.29E-02
    15 OT DIIS     0.15E+00   21.1     0.00019124     -5927.0956256734 -8.84E-02
    16 OT DIIS     0.15E+00   21.2     0.00019637     -5927.1579362305 -6.23E-02
    17 OT DIIS     0.15E+00   21.7     0.00018708     -5927.2136847024 -5.57E-02
    18 OT DIIS     0.15E+00   21.8     0.00021531     -5927.2764516234 -6.28E-02
    19 OT DIIS     0.15E+00   22.2     0.00014767     -5927.3160682375 -3.96E-02
    20 OT DIIS     0.15E+00   22.4     0.00016213     -5927.3594441119 -4.34E-02
    21 OT DIIS     0.15E+00   21.8     0.00015572     -5927.3985814504 -3.91E-02
    22 OT DIIS     0.15E+00   21.6     0.00012992     -5927.4279269261 -2.93E-02
    23 OT DIIS     0.15E+00   21.8     0.00014648     -5927.4533280800 -2.54E-02
    24 OT DIIS     0.15E+00   21.9     0.00011818     -5927.4843237570 -3.10E-02
    25 OT DIIS     0.15E+00   21.6     0.00013271     -5927.5048298060 -2.05E-02
    26 OT DIIS     0.15E+00   21.6     0.00010535     -5927.5239796484 -1.91E-02
    27 OT DIIS     0.15E+00   22.0     0.00012441     -5927.5471722510 -2.32E-02
    28 OT DIIS     0.15E+00   20.9     0.00010066     -5927.5572683137 -1.01E-02
    29 OT DIIS     0.15E+00   20.3     0.00009778     -5927.5706392384 -1.34E-02
    30 OT DIIS     0.15E+00   20.7     0.00008745     -5927.5844411828 -1.38E-02

  Leaving inner SCF loop after reaching    30 steps.


  Electronic density on regular grids:      -3474.0000000009       -0.0000000009
  Core density on regular grids:             3473.9999999952       -0.0000000048
  Total charge density on r-space grids:       -0.0000000057
  Total charge density g-space grids:          -0.0000000047

  Overlap energy of the core charge distribution:               0.00000032685065
  Self energy of the core charge distribution:             -13965.50565932552126
  Core Hamiltonian energy:                                   3144.51284591147214
  Hartree energy:                                            6203.29981560247325
  Exchange-correlation energy:                              -1307.42499827090160
  Dispersion energy:                                           -2.46644542721418

  Total energy:                                             -5927.58444118284206

  outer SCF iter =    2 RMS gradient =   0.87E-04 energy =      -5927.5844411828

  ----------------------------------- OT ---------------------------------------
  Minimizer      : DIIS                : direct inversion
                                         in the iterative subspace
                                         using   8 DIIS vectors
                                         safer DIIS on
  Preconditioner : FULL_KINETIC        : inversion of T + eS
  Precond_solver : DEFAULT
  stepsize       :    0.15000000                  energy_gap     :    0.00010000
  eps_taylor     :   0.10000E-15                  max_taylor     :             4
  ----------------------------------- OT ---------------------------------------

  Step     Update method      Time    Convergence         Total energy    Change
  ------------------------------------------------------------------------------
     1 OT DIIS     0.15E+00   48.6     0.00009263     -5927.5962287955 -1.18E-02
     2 OT DIIS     0.15E+00   19.5     0.00027913     -5927.5997309700 -3.50E-03
     3 OT DIIS     0.15E+00   19.5     0.00009252     -5927.6101156240 -1.04E-02
     4 OT DIIS     0.15E+00   19.9     0.00010127     -5927.6140454784 -3.93E-03
     5 OT DIIS     0.15E+00   19.8     0.00009896     -5927.6267651568 -1.27E-02
     6 OT DIIS     0.15E+00   20.0     0.00007815     -5927.6417532364 -1.50E-02
     7 OT DIIS     0.15E+00   20.4     0.00007620     -5927.6478521950 -6.10E-03
     8 OT DIIS     0.15E+00   20.5     0.00007086     -5927.6540794299 -6.23E-03
     9 OT SD       0.15E+00   20.9     0.00008068     -5927.6774422994 -2.34E-02
    10 OT DIIS     0.15E+00   21.1     0.00035446     -5927.6675870855  9.86E-03
    11 OT DIIS     0.15E+00   20.7     0.00009881     -5927.6926963618 -2.51E-02
    12 OT DIIS     0.15E+00   21.2     0.00006315     -5927.7114641619 -1.88E-02
    13 OT DIIS     0.15E+00   21.0     0.00006513     -5927.7206887463 -9.22E-03
    14 OT DIIS     0.15E+00   21.0     0.00008589     -5927.7255077481 -4.82E-03
    15 OT DIIS     0.15E+00   21.3     0.00006432     -5927.7324189589 -6.91E-03
    16 OT DIIS     0.15E+00   20.2     0.00006283     -5927.7367272777 -4.31E-03
    17 OT DIIS     0.15E+00   20.8     0.00006413     -5927.7366156990  1.12E-04
    18 OT DIIS     0.15E+00   20.3     0.00003886     -5927.7421512678 -5.54E-03
    19 OT DIIS     0.15E+00   20.2     0.00003450     -5927.7438134287 -1.66E-03
    20 OT DIIS     0.15E+00   20.1     0.00003240     -5927.7449254050 -1.11E-03
    21 OT DIIS     0.15E+00   20.2     0.00003036     -5927.7462777949 -1.35E-03
    22 OT DIIS     0.15E+00   20.0     0.00002804     -5927.7472619322 -9.84E-04
    23 OT DIIS     0.15E+00   20.0     0.00003001     -5927.7481513201 -8.89E-04
    24 OT DIIS     0.15E+00   19.5     0.00002822     -5927.7496023563 -1.45E-03
    25 OT DIIS     0.15E+00   19.7     0.00002766     -5927.7506502342 -1.05E-03
    26 OT DIIS     0.15E+00   21.2     0.00002283     -5927.7512095634 -5.59E-04
    27 OT DIIS     0.15E+00   20.8     0.00002610     -5927.7518545539 -6.45E-04
    28 OT DIIS     0.15E+00   20.9     0.00002121     -5927.7528522003 -9.98E-04
    29 OT DIIS     0.15E+00   20.6     0.00002125     -5927.7534595073 -6.07E-04
    30 OT DIIS     0.15E+00   20.3     0.00002429     -5927.7540938247 -6.34E-04

  Leaving inner SCF loop after reaching    30 steps.


  Electronic density on regular grids:      -3474.0000000010       -0.0000000010
  Core density on regular grids:             3473.9999999952       -0.0000000048
  Total charge density on r-space grids:       -0.0000000058
  Total charge density g-space grids:          -0.0000000047

  Overlap energy of the core charge distribution:               0.00000032685065
  Self energy of the core charge distribution:             -13965.50565932552126
  Core Hamiltonian energy:                                   3144.21479927005657
  Hartree energy:                                            6203.40646375592041
  Exchange-correlation energy:                              -1307.40325242483732
  Dispersion energy:                                           -2.46644542721418

  Total energy:                                             -5927.75409382474663

  outer SCF iter =    3 RMS gradient =   0.24E-04 energy =      -5927.7540938247

  ----------------------------------- OT ---------------------------------------
  Minimizer      : DIIS                : direct inversion
                                         in the iterative subspace
                                         using   8 DIIS vectors
                                         safer DIIS on
  Preconditioner : FULL_KINETIC        : inversion of T + eS
  Precond_solver : DEFAULT
  stepsize       :    0.15000000                  energy_gap     :    0.00010000
  eps_taylor     :   0.10000E-15                  max_taylor     :             4
  ----------------------------------- OT ---------------------------------------

  Step     Update method      Time    Convergence         Total energy    Change
  ------------------------------------------------------------------------------
     1 OT DIIS     0.15E+00   45.3     0.00002416     -5927.7551762908 -1.08E-03
     2 OT DIIS     0.15E+00   20.1     0.00009860     -5927.7546391535  5.37E-04
     3 OT DIIS     0.15E+00   20.1     0.00002086     -5927.7559258327 -1.29E-03
     4 OT DIIS     0.15E+00   21.5     0.00001914     -5927.7561362411 -2.10E-04
     5 OT DIIS     0.15E+00   21.3     0.00002214     -5927.7567130892 -5.77E-04
     6 OT DIIS     0.15E+00   20.9     0.00001860     -5927.7583713274 -1.66E-03
     7 OT DIIS     0.15E+00   21.3     0.00001823     -5927.7590639653 -6.93E-04
     8 OT DIIS     0.15E+00   21.0     0.00001752     -5927.7598401983 -7.76E-04
     9 OT DIIS     0.15E+00   21.4     0.00001892     -5927.7612623665 -1.42E-03
    10 OT DIIS     0.15E+00   21.4     0.00001396     -5927.7614790138 -2.17E-04
    11 OT DIIS     0.15E+00   21.7     0.00001497     -5927.7627607963 -1.28E-03
    12 OT DIIS     0.15E+00   21.7     0.00001747     -5927.7632984459 -5.38E-04
    13 OT DIIS     0.15E+00   21.3     0.00001341     -5927.7635926572 -2.94E-04
    14 OT DIIS     0.15E+00   21.3     0.00001366     -5927.7639403046 -3.48E-04
    15 OT DIIS     0.15E+00   21.1     0.00001141     -5927.7644556910 -5.15E-04
    16 OT DIIS     0.15E+00   21.3     0.00001173     -5927.7647332630 -2.78E-04
    17 OT DIIS     0.15E+00   21.3     0.00001098     -5927.7650917226 -3.58E-04
    18 OT DIIS     0.15E+00   21.1     0.00001212     -5927.7657984157 -7.07E-04
    19 OT DIIS     0.15E+00   21.0     0.00001019     -5927.7658755918 -7.72E-05
    20 OT DIIS     0.15E+00   20.9     0.00001001     -5927.7664946449 -6.19E-04
    21 OT DIIS     0.15E+00   21.1     0.00001106     -5927.7668619623 -3.67E-04
    22 OT DIIS     0.15E+00   20.0     0.00000999     -5927.7670655809 -2.04E-04
    23 OT DIIS     0.15E+00   21.0     0.00001069     -5927.7673211720 -2.56E-04
    24 OT DIIS     0.15E+00   20.2     0.00000919     -5927.7677001365 -3.79E-04
    25 OT DIIS     0.15E+00   19.9     0.00000943     -5927.7679325176 -2.32E-04
    26 OT DIIS     0.15E+00   20.4     0.00000863     -5927.7681451503 -2.13E-04
    27 OT DIIS     0.15E+00   21.5     0.00000904     -5927.7684451974 -3.00E-04
    28 OT DIIS     0.15E+00   20.8     0.00000767     -5927.7685381700 -9.30E-05
    29 OT DIIS     0.15E+00   20.9     0.00000802     -5927.7687421238 -2.04E-04
    30 OT DIIS     0.15E+00   21.3     0.00000747     -5927.7689134883 -1.71E-04

  Leaving inner SCF loop after reaching    30 steps.


  Electronic density on regular grids:      -3474.0000000010       -0.0000000010
  Core density on regular grids:             3473.9999999952       -0.0000000048
  Total charge density on r-space grids:       -0.0000000058
  Total charge density g-space grids:          -0.0000000047

  Overlap energy of the core charge distribution:               0.00000032685065
  Self energy of the core charge distribution:             -13965.50565932552126
  Core Hamiltonian energy:                                   3144.25208754805226
  Hartree energy:                                            6203.38136872400719
  Exchange-correlation energy:                              -1307.43026533452326
  Dispersion energy:                                           -2.46644542721418

  Total energy:                                             -5927.76891348834943

  outer SCF iter =    4 RMS gradient =   0.75E-05 energy =      -5927.7689134883

  ----------------------------------- OT ---------------------------------------
  Minimizer      : DIIS                : direct inversion
                                         in the iterative subspace
                                         using   8 DIIS vectors
                                         safer DIIS on
  Preconditioner : FULL_KINETIC        : inversion of T + eS
  Precond_solver : DEFAULT
  stepsize       :    0.15000000                  energy_gap     :    0.00010000
  eps_taylor     :   0.10000E-15                  max_taylor     :             4
  ----------------------------------- OT ---------------------------------------

  Step     Update method      Time    Convergence         Total energy    Change
  ------------------------------------------------------------------------------
     1 OT DIIS     0.15E+00   49.2     0.00000775     -5927.7690613287 -1.48E-04
     2 OT DIIS     0.15E+00   20.9     0.00003049     -5927.7690291474  3.22E-05
     3 OT DIIS     0.15E+00   20.5     0.00000703     -5927.7691463697 -1.17E-04
     4 OT DIIS     0.15E+00   20.4     0.00000657     -5927.7691700498 -2.37E-05
     5 OT DIIS     0.15E+00   20.0     0.00000812     -5927.7692727098 -1.03E-04
     6 OT DIIS     0.15E+00   20.7     0.00001010     -5927.7694676976 -1.95E-04
     7 OT DIIS     0.15E+00   19.9     0.00000552     -5927.7695870337 -1.19E-04
     8 OT DIIS     0.15E+00   20.5     0.00000466     -5927.7696615858 -7.46E-05
     9 OT DIIS     0.15E+00   20.9     0.00000533     -5927.7697563178 -9.47E-05
    10 OT DIIS     0.15E+00   21.4     0.00000376     -5927.7697699114 -1.36E-05
    11 OT DIIS     0.15E+00   21.1     0.00000467     -5927.7698135795 -4.37E-05
    12 OT DIIS     0.15E+00   20.6     0.00000373     -5927.7698457871 -3.22E-05
    13 OT DIIS     0.15E+00   21.1     0.00000368     -5927.7698670769 -2.13E-05
    14 OT DIIS     0.15E+00   20.9     0.00000352     -5927.7698906655 -2.36E-05
    15 OT DIIS     0.15E+00   20.9     0.00000350     -5927.7699292543 -3.86E-05
    16 OT DIIS     0.15E+00   20.4     0.00000317     -5927.7699563885 -2.71E-05
    17 OT DIIS     0.15E+00   20.7     0.00000317     -5927.7699910728 -3.47E-05
    18 OT DIIS     0.15E+00   21.0     0.00000360     -5927.7700387951 -4.77E-05
    19 OT DIIS     0.15E+00   21.0     0.00000299     -5927.7700723816 -3.36E-05
    20 OT DIIS     0.15E+00   20.7     0.00000330     -5927.7701264833 -5.41E-05
    21 OT DIIS     0.15E+00   21.4     0.00000319     -5927.7701823827 -5.59E-05
    22 OT DIIS     0.15E+00   21.4     0.00000299     -5927.7702299179 -4.75E-05
    23 OT DIIS     0.15E+00   22.0     0.00000308     -5927.7702688140 -3.89E-05
    24 OT DIIS     0.15E+00   21.8     0.00000304     -5927.7703340753 -6.53E-05
    25 OT DIIS     0.15E+00   21.4     0.00000270     -5927.7703733856 -3.93E-05
    26 OT DIIS     0.15E+00   21.1     0.00000261     -5927.7704207090 -4.73E-05
    27 OT DIIS     0.15E+00   20.8     0.00000316     -5927.7704679488 -4.72E-05
    28 OT DIIS     0.15E+00   20.8     0.00000235     -5927.7704954739 -2.75E-05
    29 OT DIIS     0.15E+00   20.6     0.00000254     -5927.7705271527 -3.17E-05
    30 OT DIIS     0.15E+00   21.0     0.00000244     -5927.7705555802 -2.84E-05

  Leaving inner SCF loop after reaching    30 steps.


  Electronic density on regular grids:      -3474.0000000570       -0.0000000570
  Core density on regular grids:             3473.9999999952       -0.0000000048
  Total charge density on r-space grids:       -0.0000000618
  Total charge density g-space grids:          -0.0000000608

  Overlap energy of the core charge distribution:               0.00000032685065
  Self energy of the core charge distribution:             -13965.50565932552126
  Core Hamiltonian energy:                                   3144.23619327439292
  Hartree energy:                                            6203.39006944165703
  Exchange-correlation energy:                              -1307.42471387037313
  Dispersion energy:                                           -2.46644542721418

  Total energy:                                             -5927.77055558020766

  outer SCF iter =    5 RMS gradient =   0.24E-05 energy =      -5927.7705555802

  ----------------------------------- OT ---------------------------------------
  Minimizer      : DIIS                : direct inversion
                                         in the iterative subspace
                                         using   8 DIIS vectors
                                         safer DIIS on
  Preconditioner : FULL_KINETIC        : inversion of T + eS
  Precond_solver : DEFAULT
  stepsize       :    0.15000000                  energy_gap     :    0.00010000
  eps_taylor     :   0.10000E-15                  max_taylor     :             4
  ----------------------------------- OT ---------------------------------------

  Step     Update method      Time    Convergence         Total energy    Change
  ------------------------------------------------------------------------------
     1 OT DIIS     0.15E+00   46.6     0.00000229     -5927.7705758924 -2.03E-05
     2 OT DIIS     0.15E+00   22.0     0.00000856     -5927.7705738691  2.02E-06
     3 OT DIIS     0.15E+00   21.9     0.00000212     -5927.7705835105 -9.64E-06
     4 OT DIIS     0.15E+00   21.9     0.00000197     -5927.7705854131 -1.90E-06
     5 OT DIIS     0.15E+00   20.2     0.00000219     -5927.7705935650 -8.15E-06
     6 OT DIIS     0.15E+00   20.3     0.00000256     -5927.7706156057 -2.20E-05
     7 OT DIIS     0.15E+00   20.4     0.00000175     -5927.7706270754 -1.15E-05
     8 OT DIIS     0.15E+00   21.2     0.00000178     -5927.7706335275 -6.45E-06
     9 OT DIIS     0.15E+00   20.9     0.00000167     -5927.7706429781 -9.45E-06
    10 OT DIIS     0.15E+00   21.5     0.00000119     -5927.7706470218 -4.04E-06
    11 OT DIIS     0.15E+00   21.1     0.00000162     -5927.7706544364 -7.41E-06
    12 OT DIIS     0.15E+00   21.3     0.00000139     -5927.7706584760 -4.04E-06
    13 OT DIIS     0.15E+00   21.4     0.00000135     -5927.7706604288 -1.95E-06
    14 OT DIIS     0.15E+00   21.4     0.00000116     -5927.7706641018 -3.67E-06
    15 OT DIIS     0.15E+00   21.9     0.00000116     -5927.7706697909 -5.69E-06
    16 OT DIIS     0.15E+00   22.4     0.00000107     -5927.7706726399 -2.85E-06
    17 OT DIIS     0.15E+00   22.0     0.00000109     -5927.7706762524 -3.61E-06
    18 OT DIIS     0.15E+00   21.7     0.00000111     -5927.7706816584 -5.41E-06
    19 OT DIIS     0.15E+00   22.5     0.00000100     -5927.7706844557 -2.80E-06
    20 OT DIIS     0.15E+00   22.1     0.00000105     -5927.7706908220 -6.37E-06
    21 OT DIIS     0.15E+00   20.9     0.00000108     -5927.7706960869 -5.26E-06
    22 OT DIIS     0.15E+00   20.5     0.00000104     -5927.7706987074 -2.62E-06
    23 OT DIIS     0.15E+00   21.0     0.00000098     -5927.7707026755 -3.97E-06

  *** SCF run converged in    23 steps ***


  Electronic density on regular grids:      -3474.0000000008       -0.0000000008
  Core density on regular grids:             3473.9999999952       -0.0000000048
  Total charge density on r-space grids:       -0.0000000056
  Total charge density g-space grids:          -0.0000000047

  Overlap energy of the core charge distribution:               0.00000032685065
  Self energy of the core charge distribution:             -13965.50565932552126
  Core Hamiltonian energy:                                   3144.23692936183079
  Hartree energy:                                            6203.38961710540207
  Exchange-correlation energy:                              -1307.42514471689265
  Dispersion energy:                                           -2.46644542721418

  Total energy:                                             -5927.77070267554518

  outer SCF iter =    6 RMS gradient =   0.98E-06 energy =      -5927.7707026755
  outer SCF loop converged in   6 iterations or  173 steps


 ENERGY| Total FORCE_EVAL ( QS ) energy (a.u.):            -5927.770709901539703


 --------  Informations at step =     0 ------------
  Optimization Method        =                 BFGS
  Total Energy               =     -5927.7707099015
  Used time                  =             3716.754
 ---------------------------------------------------

 --------------------------
 OPTIMIZATION STEP:      1
 --------------------------

 Number of electrons:                                                       3474
 Number of occupied orbitals:                                               1737
 Number of molecular orbitals:                                              1737

 Number of orbital functions:                                               7524
 Number of independent orbital functions:                                   7524

 Extrapolation method: ASPC


 SCF WAVEFUNCTION OPTIMIZATION

  ----------------------------------- OT ---------------------------------------
  Minimizer      : DIIS                : direct inversion
                                         in the iterative subspace
                                         using   8 DIIS vectors
                                         safer DIIS on
  Preconditioner : FULL_KINETIC        : inversion of T + eS
  Precond_solver : DEFAULT
  stepsize       :    0.15000000                  energy_gap     :    0.00010000
  eps_taylor     :   0.10000E-15                  max_taylor     :             4
  ----------------------------------- OT ---------------------------------------

  Step     Update method      Time    Convergence         Total energy    Change
  ------------------------------------------------------------------------------
     1 OT DIIS     0.15E+00   20.8     0.00003025     -5927.7721655715 -5.93E+03
     2 OT DIIS     0.15E+00   21.4     0.00002100     -5927.7736317317 -1.47E-03
     3 OT DIIS     0.15E+00   21.1     0.00003857     -5927.7746239845 -9.92E-04
     4 OT DIIS     0.15E+00   20.5     0.00002257     -5927.7749159937 -2.92E-04
     5 OT DIIS     0.15E+00   21.2     0.00002208     -5927.7752911180 -3.75E-04
     6 OT DIIS     0.15E+00   19.8     0.00001698     -5927.7755374065 -2.46E-04
     7 OT DIIS     0.15E+00   19.7     0.00001248     -5927.7757420109 -2.05E-04
     8 OT DIIS     0.15E+00   20.7     0.00001476     -5927.7758334885 -9.15E-05
     9 OT DIIS     0.15E+00   21.4     0.00000951     -5927.7759315180 -9.80E-05
    10 OT DIIS     0.15E+00   21.6     0.00000906     -5927.7759849915 -5.35E-05
    11 OT DIIS     0.15E+00   21.8     0.00000558     -5927.7760198324 -3.48E-05
    12 OT DIIS     0.15E+00   21.4     0.00000651     -5927.7760631752 -4.33E-05
    13 OT DIIS     0.15E+00   21.7     0.00000528     -5927.7760837730 -2.06E-05
    14 OT DIIS     0.15E+00   21.8     0.00000426     -5927.7761063682 -2.26E-05
    15 OT DIIS     0.15E+00   21.8     0.00000355     -5927.7761273508 -2.10E-05
    16 OT DIIS     0.15E+00   21.9     0.00000353     -5927.7761403561 -1.30E-05
    17 OT DIIS     0.15E+00   22.0     0.00000294     -5927.7761522254 -1.19E-05
    18 OT DIIS     0.15E+00   21.2     0.00000345     -5927.7761610810 -8.86E-06
    19 OT DIIS     0.15E+00   20.8     0.00000283     -5927.7761692252 -8.14E-06
    20 OT DIIS     0.15E+00   20.5     0.00000236     -5927.7761757339 -6.51E-06
    21 OT DIIS     0.15E+00   21.0     0.00000208     -5927.7761822593 -6.53E-06
    22 OT DIIS     0.15E+00   20.8     0.00000189     -5927.7761878659 -5.61E-06
    23 OT DIIS     0.15E+00   20.9     0.00000182     -5927.7761920218 -4.16E-06
    24 OT DIIS     0.15E+00   20.7     0.00000177     -5927.7761967187 -4.70E-06
    25 OT DIIS     0.15E+00   20.7     0.00000170     -5927.7762000545 -3.34E-06
    26 OT DIIS     0.15E+00   21.0     0.00000146     -5927.7762043759 -4.32E-06
    27 OT DIIS     0.15E+00   20.5     0.00000155     -5927.7762081669 -3.79E-06
    28 OT DIIS     0.15E+00   21.0     0.00000138     -5927.7762119817 -3.81E-06
    29 OT DIIS     0.15E+00   20.4     0.00000131     -5927.7762153250 -3.34E-06
    30 OT DIIS     0.15E+00   20.3     0.00000128     -5927.7762193428 -4.02E-06

  Leaving inner SCF loop after reaching    30 steps.


  Electronic density on regular grids:      -3474.0000000015       -0.0000000015
  Core density on regular grids:             3473.9999999951       -0.0000000049
  Total charge density on r-space grids:       -0.0000000063
  Total charge density g-space grids:          -0.0000000052

  Overlap energy of the core charge distribution:               0.00000032671395
  Self energy of the core charge distribution:             -13965.50565932552126
  Core Hamiltonian energy:                                   3144.21555463023833
  Hartree energy:                                            6203.39988771692788
  Exchange-correlation energy:                              -1307.41946488623148
  Dispersion energy:                                           -2.46653780489854

  Total energy:                                             -5927.77621934276976

  outer SCF iter =    1 RMS gradient =   0.13E-05 energy =      -5927.7762193428

  ----------------------------------- OT ---------------------------------------
  Minimizer      : DIIS                : direct inversion
                                         in the iterative subspace
                                         using   8 DIIS vectors
                                         safer DIIS on
  Preconditioner : FULL_KINETIC        : inversion of T + eS
  Precond_solver : DEFAULT
  stepsize       :    0.15000000                  energy_gap     :    0.00010000
  eps_taylor     :   0.10000E-15                  max_taylor     :             4
  ----------------------------------- OT ---------------------------------------

  Step     Update method      Time    Convergence         Total energy    Change
  ------------------------------------------------------------------------------
     1 OT DIIS     0.15E+00   45.6     0.00000124     -5927.7762232205 -3.88E-06
     2 OT DIIS     0.15E+00   20.5     0.00000435     -5927.7762230158  2.05E-07
     3 OT DIIS     0.15E+00   19.6     0.00000120     -5927.7762255326 -2.52E-06
     4 OT DIIS     0.15E+00   20.1     0.00000108     -5927.7762261038 -5.71E-07
     5 OT DIIS     0.15E+00   19.9     0.00000110     -5927.7762278353 -1.73E-06
     6 OT DIIS     0.15E+00   19.4     0.00000152     -5927.7762354940 -7.66E-06
     7 OT DIIS     0.15E+00   19.1     0.00000107     -5927.7762411828 -5.69E-06
     8 OT DIIS     0.15E+00   19.9     0.00000083     -5927.7762426013 -1.42E-06

  *** SCF run converged in     8 steps ***


  Electronic density on regular grids:      -3474.0000000013       -0.0000000013
  Core density on regular grids:             3473.9999999951       -0.0000000049
  Total charge density on r-space grids:       -0.0000000061
  Total charge density g-space grids:          -0.0000000050

  Overlap energy of the core charge distribution:               0.00000032671395
  Self energy of the core charge distribution:             -13965.50565932552126
  Core Hamiltonian energy:                                   3144.21515095538598
  Hartree energy:                                            6203.40022627602684
  Exchange-correlation energy:                              -1307.41942302905227
  Dispersion energy:                                           -2.46653780489854

  Total energy:                                             -5927.77624260134417

  outer SCF iter =    2 RMS gradient =   0.83E-06 energy =      -5927.7762426013
  outer SCF loop converged in   2 iterations or   38 steps


 ENERGY| Total FORCE_EVAL ( QS ) energy (a.u.):            -5927.776243665516631


 --------  Informations at step =     1 ------------
  Optimization Method        =                 BFGS
  Total Energy               =     -5927.7762436655
  Real energy change         =        -0.0055337640
  Predicted change in energy =        -0.0039894310
  Scaling factor             =         0.0000000000
  Step size                  =         0.0853696684
  Trust radius               =         0.4724315332
  Decrease in energy         =                  YES
  Used time                  =              826.874

  Convergence check :
  Max. step size             =         0.0853696684
  Conv. limit for step size  =         0.0030000000
  Convergence in step size   =                   NO
  RMS step size              =         0.0054003365
  Conv. limit for RMS step   =         0.0015000000
  Convergence in RMS step    =                   NO
  Max. gradient              =         0.0055903622
  Conv. limit for gradients  =         0.0004500000
  Conv. for gradients        =                   NO
  RMS gradient               =         0.0004318942
  Conv. limit for RMS grad.  =         0.0003000000
  Conv. for gradients        =                   NO
 ---------------------------------------------------

 --------------------------
 OPTIMIZATION STEP:      2
 --------------------------

 Number of electrons:                                                       3474
 Number of occupied orbitals:                                               1737
 Number of molecular orbitals:                                              1737

 Number of orbital functions:                                               7524
 Number of independent orbital functions:                                   7524

 Extrapolation method: ASPC


 SCF WAVEFUNCTION OPTIMIZATION

  ----------------------------------- OT ---------------------------------------
  Minimizer      : DIIS                : direct inversion
                                         in the iterative subspace
                                         using   8 DIIS vectors
                                         safer DIIS on
  Preconditioner : FULL_KINETIC        : inversion of T + eS
  Precond_solver : DEFAULT
  stepsize       :    0.15000000                  energy_gap     :    0.00010000
  eps_taylor     :   0.10000E-15                  max_taylor     :             4
  ----------------------------------- OT ---------------------------------------

  Step     Update method      Time    Convergence         Total energy    Change
  ------------------------------------------------------------------------------
     1 OT DIIS     0.15E+00   20.7     0.00001449     -5927.7771983151 -5.93E+03
     2 OT DIIS     0.15E+00   20.8     0.00001057     -5927.7775305941 -3.32E-04
     3 OT DIIS     0.15E+00   20.9     0.00002669     -5927.7776472055 -1.17E-04
     4 OT DIIS     0.15E+00   20.9     0.00001138     -5927.7778095526 -1.62E-04
     5 OT DIIS     0.15E+00   20.8     0.00001438     -5927.7778596757 -5.01E-05
     6 OT DIIS     0.15E+00   20.7     0.00000760     -5927.7779454100 -8.57E-05
     7 OT DIIS     0.15E+00   21.1     0.00000771     -5927.7780010022 -5.56E-05
     8 OT DIIS     0.15E+00   21.0     0.00000544     -5927.7780304978 -2.95E-05
     9 OT DIIS     0.15E+00   20.8     0.00000502     -5927.7780560344 -2.55E-05
    10 OT DIIS     0.15E+00   19.8     0.00000611     -5927.7780670998 -1.11E-05
    11 OT DIIS     0.15E+00   18.9     0.00000313     -5927.7780774685 -1.04E-05
    12 OT DIIS     0.15E+00   20.1     0.00000272     -5927.7780875432 -1.01E-05
    13 OT DIIS     0.15E+00   20.0     0.00000279     -5927.7780951183 -7.58E-06
    14 OT DIIS     0.15E+00   20.5     0.00000230     -5927.7780996364 -4.52E-06
    15 OT DIIS     0.15E+00   20.4     0.00000242     -5927.7781043894 -4.75E-06
    16 OT DIIS     0.15E+00   20.5     0.00000195     -5927.7781074695 -3.08E-06
    17 OT DIIS     0.15E+00   20.8     0.00000199     -5927.7781103981 -2.93E-06
    18 OT DIIS     0.15E+00   20.8     0.00000162     -5927.7781124678 -2.07E-06
    19 OT DIIS     0.15E+00   20.9     0.00000155     -5927.7781149696 -2.50E-06
    20 OT DIIS     0.15E+00   21.4     0.00000147     -5927.7781169038 -1.93E-06
    21 OT DIIS     0.15E+00   21.0     0.00000120     -5927.7781181568 -1.25E-06
    22 OT DIIS     0.15E+00   20.8     0.00000117     -5927.7781196051 -1.45E-06
    23 OT DIIS     0.15E+00   20.9     0.00000127     -5927.7781206742 -1.07E-06
    24 OT DIIS     0.15E+00   20.6     0.00000111     -5927.7781214281 -7.54E-07
    25 OT DIIS     0.15E+00   20.5     0.00000121     -5927.7781222143 -7.86E-07
    26 OT DIIS     0.15E+00   19.5     0.00000106     -5927.7781230377 -8.23E-07
    27 OT DIIS     0.15E+00   19.5     0.00000102     -5927.7781238594 -8.22E-07
    28 OT DIIS     0.15E+00   20.2     0.00000096     -5927.7781244503 -5.91E-07

  *** SCF run converged in    28 steps ***


  Electronic density on regular grids:      -3474.0000000014       -0.0000000014
  Core density on regular grids:             3473.9999999952       -0.0000000048
  Total charge density on r-space grids:       -0.0000000063
  Total charge density g-space grids:          -0.0000000053

  Overlap energy of the core charge distribution:               0.00000032689505
  Self energy of the core charge distribution:             -13965.50565932552126
  Core Hamiltonian energy:                                   3144.20221461943947
  Hartree energy:                                            6203.40817534028429
  Exchange-correlation energy:                              -1307.41621377812135
  Dispersion energy:                                           -2.46664163325447

  Total energy:                                             -5927.77812445027939

  outer SCF iter =    1 RMS gradient =   0.96E-06 energy =      -5927.7781244503
  outer SCF loop converged in   1 iterations or   28 steps


 ENERGY| Total FORCE_EVAL ( QS ) energy (a.u.):            -5927.778124887340709


 --------  Informations at step =     2 ------------
  Optimization Method        =                 BFGS
  Total Energy               =     -5927.7781248873
  Real energy change         =        -0.0018812218
  Predicted change in energy =        -0.0014285875
  Scaling factor             =         0.0000000000
  Step size                  =         0.0800812228
  Trust radius               =         0.4724315332
  Decrease in energy         =                  YES
  Used time                  =              609.529

  Convergence check :
  Max. step size             =         0.0800812228
  Conv. limit for step size  =         0.0030000000
  Convergence in step size   =                   NO
  RMS step size              =         0.0046586175
  Conv. limit for RMS step   =         0.0015000000
  Convergence in RMS step    =                   NO
  Max. gradient              =         0.0031817504
  Conv. limit for gradients  =         0.0004500000
  Conv. for gradients        =                   NO
  RMS gradient               =         0.0002724011
  Conv. limit for RMS grad.  =         0.0003000000
  Conv. in RMS gradients     =                  YES
 ---------------------------------------------------

 --------------------------
 OPTIMIZATION STEP:      3
 --------------------------

 Number of electrons:                                                       3474
 Number of occupied orbitals:                                               1737
 Number of molecular orbitals:                                              1737

 Number of orbital functions:                                               7524
 Number of independent orbital functions:                                   7524

 Extrapolation method: ASPC


 SCF WAVEFUNCTION OPTIMIZATION

  ----------------------------------- OT ---------------------------------------
  Minimizer      : DIIS                : direct inversion
                                         in the iterative subspace
                                         using   8 DIIS vectors
                                         safer DIIS on
  Preconditioner : FULL_KINETIC        : inversion of T + eS
  Precond_solver : DEFAULT
  stepsize       :    0.15000000                  energy_gap     :    0.00010000
  eps_taylor     :   0.10000E-15                  max_taylor     :             4
  ----------------------------------- OT ---------------------------------------

  Step     Update method      Time    Convergence         Total energy    Change
  ------------------------------------------------------------------------------
     1 OT DIIS     0.15E+00   20.4     0.00001060     -5927.7786948379 -5.93E+03
     2 OT DIIS     0.15E+00   18.3     0.00001497     -5927.7788432410 -1.48E-04
     3 OT DIIS     0.15E+00   20.1     0.00001948     -5927.7788498172 -6.58E-06
     4 OT DIIS     0.15E+00   21.1     0.00001073     -5927.7789667698 -1.17E-04
     5 OT DIIS     0.15E+00   20.9     0.00000717     -5927.7789982048 -3.14E-05
     6 OT DIIS     0.15E+00   20.2     0.00000812     -5927.7790248751 -2.67E-05
     7 OT DIIS     0.15E+00   20.4     0.00000706     -5927.7790480895 -2.32E-05
     8 OT DIIS     0.15E+00   20.6     0.00000410     -5927.7790704027 -2.23E-05
     9 OT DIIS     0.15E+00   21.2     0.00000386     -5927.7790815781 -1.12E-05
    10 OT DIIS     0.15E+00   20.6     0.00000316     -5927.7790912007 -9.62E-06
    11 OT DIIS     0.15E+00   20.1     0.00000274     -5927.7790973802 -6.18E-06
    12 OT DIIS     0.15E+00   18.4     0.00000256     -5927.7791009490 -3.57E-06
    13 OT DIIS     0.15E+00   19.6     0.00000179     -5927.7791054770 -4.53E-06
    14 OT DIIS     0.15E+00   20.1     0.00000181     -5927.7791087788 -3.30E-06
    15 OT DIIS     0.15E+00   19.9     0.00000178     -5927.7791107602 -1.98E-06
    16 OT DIIS     0.15E+00   18.7     0.00000178     -5927.7791127267 -1.97E-06
    17 OT DIIS     0.15E+00   19.5     0.00000162     -5927.7791141900 -1.46E-06
    18 OT DIIS     0.15E+00   20.0     0.00000139     -5927.7791154767 -1.29E-06
    19 OT DIIS     0.15E+00   19.4     0.00000104     -5927.7791165995 -1.12E-06
    20 OT DIIS     0.15E+00   19.9     0.00000111     -5927.7791177493 -1.15E-06
    21 OT DIIS     0.15E+00   19.3     0.00000108     -5927.7791184787 -7.29E-07
    22 OT DIIS     0.15E+00   20.7     0.00000100     -5927.7791189256 -4.47E-07
    23 OT DIIS     0.15E+00   21.0     0.00000093     -5927.7791195080 -5.82E-07

  *** SCF run converged in    23 steps ***


  Electronic density on regular grids:      -3474.0000000016       -0.0000000016
  Core density on regular grids:             3473.9999999951       -0.0000000049
  Total charge density on r-space grids:       -0.0000000064
  Total charge density g-space grids:          -0.0000000053

  Overlap energy of the core charge distribution:               0.00000032678325
  Self energy of the core charge distribution:             -13965.50565932552126
  Core Hamiltonian energy:                                   3144.17056062638449
  Hartree energy:                                            6203.42923888952373
  Exchange-correlation energy:                              -1307.40658640569677
  Dispersion energy:                                           -2.46667361944288

  Total energy:                                             -5927.77911950796897

  outer SCF iter =    1 RMS gradient =   0.93E-06 energy =      -5927.7791195080
  outer SCF loop converged in   1 iterations or   23 steps


 ENERGY| Total FORCE_EVAL ( QS ) energy (a.u.):            -5927.779119945807906


 --------  Informations at step =     3 ------------
  Optimization Method        =                 BFGS
  Total Energy               =     -5927.7791199458
  Real energy change         =        -0.0009950585
  Predicted change in energy =        -0.0005791720
  Scaling factor             =         0.0000000000
  Step size                  =         0.0675629420
  Trust radius               =         0.4724315332
  Decrease in energy         =                  YES
  Used time                  =              496.031

  Convergence check :
  Max. step size             =         0.0675629420
  Conv. limit for step size  =         0.0030000000
  Convergence in step size   =                   NO
  RMS step size              =         0.0037566187
  Conv. limit for RMS step   =         0.0015000000
  Convergence in RMS step    =                   NO
  Max. gradient              =         0.0035969409
  Conv. limit for gradients  =         0.0004500000
  Conv. for gradients        =                   NO
  RMS gradient               =         0.0002908612
  Conv. limit for RMS grad.  =         0.0003000000
  Conv. in RMS gradients     =                  YES
 ---------------------------------------------------

 --------------------------
 OPTIMIZATION STEP:      4
 --------------------------

 Number of electrons:                                                       3474
 Number of occupied orbitals:                                               1737
 Number of molecular orbitals:                                              1737

 Number of orbital functions:                                               7524
 Number of independent orbital functions:                                   7524

 Extrapolation method: ASPC


 SCF WAVEFUNCTION OPTIMIZATION

  ----------------------------------- OT ---------------------------------------
  Minimizer      : DIIS                : direct inversion
                                         in the iterative subspace
                                         using   8 DIIS vectors
                                         safer DIIS on
  Preconditioner : FULL_KINETIC        : inversion of T + eS
  Precond_solver : DEFAULT
  stepsize       :    0.15000000                  energy_gap     :    0.00010000
  eps_taylor     :   0.10000E-15                  max_taylor     :             4
  ----------------------------------- OT ---------------------------------------

  Step     Update method      Time    Convergence         Total energy    Change
  ------------------------------------------------------------------------------
     1 OT DIIS     0.15E+00   20.7     0.00002622     -5927.7777784116 -5.93E+03
     2 OT DIIS     0.15E+00   21.1     0.00003715     -5927.7787591880 -9.81E-04
     3 OT DIIS     0.15E+00   21.0     0.00004228     -5927.7788811379 -1.22E-04
     4 OT DIIS     0.15E+00   20.9     0.00002913     -5927.7798447033 -9.64E-04
     5 OT DIIS     0.15E+00   20.7     0.00001877     -5927.7800811339 -2.36E-04
     6 OT DIIS     0.15E+00   20.7     0.00002142     -5927.7803031307 -2.22E-04
     7 OT DIIS     0.15E+00   20.9     0.00001836     -5927.7804624131 -1.59E-04
     8 OT DIIS     0.15E+00   20.9     0.00000950     -5927.7805996382 -1.37E-04
     9 OT DIIS     0.15E+00   21.0     0.00000804     -5927.7806825951 -8.30E-05
    10 OT DIIS     0.15E+00   19.8     0.00000931     -5927.7807175330 -3.49E-05
    11 OT DIIS     0.15E+00   20.5     0.00000679     -5927.7807506277 -3.31E-05
    12 OT DIIS     0.15E+00   20.4     0.00000601     -5927.7807722165 -2.16E-05
    13 OT DIIS     0.15E+00   19.9     0.00000493     -5927.7807893964 -1.72E-05
    14 OT DIIS     0.15E+00   20.4     0.00000295     -5927.7808114174 -2.20E-05
    15 OT DIIS     0.15E+00   20.4     0.00000338     -5927.7808254211 -1.40E-05
    16 OT DIIS     0.15E+00   20.0     0.00000330     -5927.7808340613 -8.64E-06
    17 OT DIIS     0.15E+00   20.0     0.00000327     -5927.7808418790 -7.82E-06
    18 OT DIIS     0.15E+00   20.1     0.00000294     -5927.7808472723 -5.39E-06
    19 OT DIIS     0.15E+00   19.5     0.00000211     -5927.7808532377 -5.97E-06
    20 OT DIIS     0.15E+00   20.4     0.00000229     -5927.7808586729 -5.44E-06
    21 OT DIIS     0.15E+00   19.9     0.00000200     -5927.7808616654 -2.99E-06
    22 OT DIIS     0.15E+00   20.4     0.00000169     -5927.7808647347 -3.07E-06
    23 OT DIIS     0.15E+00   20.3     0.00000147     -5927.7808676406 -2.91E-06
    24 OT DIIS     0.15E+00   20.3     0.00000142     -5927.7808694808 -1.84E-06
    25 OT DIIS     0.15E+00   20.6     0.00000146     -5927.7808712521 -1.77E-06
    26 OT DIIS     0.15E+00   20.8     0.00000116     -5927.7808728161 -1.56E-06
    27 OT DIIS     0.15E+00   21.0     0.00000116     -5927.7808743464 -1.53E-06
    28 OT DIIS     0.15E+00   21.0     0.00000113     -5927.7808754958 -1.15E-06
    29 OT DIIS     0.15E+00   20.0     0.00000105     -5927.7808765709 -1.08E-06
    30 OT DIIS     0.15E+00   20.5     0.00000093     -5927.7808777710 -1.20E-06

  *** SCF run converged in    30 steps ***


  Electronic density on regular grids:      -3474.0000000016       -0.0000000016
  Core density on regular grids:             3473.9999999952       -0.0000000048
  Total charge density on r-space grids:       -0.0000000064
  Total charge density g-space grids:          -0.0000000054

  Overlap energy of the core charge distribution:               0.00000032649390
  Self energy of the core charge distribution:             -13965.50565932552126
  Core Hamiltonian energy:                                   3144.08722964802291
  Hartree energy:                                            6203.48561158890698
  Exchange-correlation energy:                              -1307.38140692793877
  Dispersion energy:                                           -2.46665308094789

  Total energy:                                             -5927.78087777098426

  outer SCF iter =    1 RMS gradient =   0.93E-06 energy =      -5927.7808777710
  outer SCF loop converged in   1 iterations or   30 steps


 ENERGY| Total FORCE_EVAL ( QS ) energy (a.u.):            -5927.780878609850333


 --------  Informations at step =     4 ------------
  Optimization Method        =                 BFGS
  Total Energy               =     -5927.7808786099
  Real energy change         =        -0.0017586640
  Predicted change in energy =        -0.0014145846
  Scaling factor             =         0.0000000000
  Step size                  =         0.1862336384
  Trust radius               =         0.4724315332
  Decrease in energy         =                  YES
  Used time                  =              651.575

  Convergence check :
  Max. step size             =         0.1862336384
  Conv. limit for step size  =         0.0030000000
  Convergence in step size   =                   NO
  RMS step size              =         0.0105972110
  Conv. limit for RMS step   =         0.0015000000
  Convergence in RMS step    =                   NO
  Max. gradient              =         0.0051518540
  Conv. limit for gradients  =         0.0004500000
  Conv. for gradients        =                   NO
  RMS gradient               =         0.0003210874
  Conv. limit for RMS grad.  =         0.0003000000
  Conv. for gradients        =                   NO
 ---------------------------------------------------

 --------------------------
 OPTIMIZATION STEP:      5
 --------------------------

 Number of electrons:                                                       3474
 Number of occupied orbitals:                                               1737
 Number of molecular orbitals:                                              1737

 Number of orbital functions:                                               7524
 Number of independent orbital functions:                                   7524

 Extrapolation method: ASPC


 SCF WAVEFUNCTION OPTIMIZATION

  ----------------------------------- OT ---------------------------------------
  Minimizer      : DIIS                : direct inversion
                                         in the iterative subspace
                                         using   8 DIIS vectors
                                         safer DIIS on
  Preconditioner : FULL_KINETIC        : inversion of T + eS
  Precond_solver : DEFAULT
  stepsize       :    0.15000000                  energy_gap     :    0.00010000
  eps_taylor     :   0.10000E-15                  max_taylor     :             4
  ----------------------------------- OT ---------------------------------------

  Step     Update method      Time    Convergence         Total energy    Change
  ------------------------------------------------------------------------------
     1 OT DIIS     0.15E+00   20.0     0.00004575     -5927.7720877027 -5.93E+03
     2 OT DIIS     0.15E+00   21.0     0.00004112     -5927.7754398252 -3.35E-03
     3 OT DIIS     0.15E+00   19.5     0.00011809     -5927.7753057440  1.34E-04
     4 OT DIIS     0.15E+00   19.9     0.00004460     -5927.7787132247 -3.41E-03
     5 OT DIIS     0.15E+00   20.9     0.00003546     -5927.7792861657 -5.73E-04
     6 OT DIIS     0.15E+00   21.3     0.00003265     -5927.7801487361 -8.63E-04
     7 OT DIIS     0.15E+00   21.3     0.00003545     -5927.7805304033 -3.82E-04
     8 OT DIIS     0.15E+00   21.7     0.00001907     -5927.7809430575 -4.13E-04
     9 OT DIIS     0.15E+00   21.9     0.00001690     -5927.7811893867 -2.46E-04
    10 OT DIIS     0.15E+00   21.6     0.00001565     -5927.7813136667 -1.24E-04
    11 OT DIIS     0.15E+00   21.9     0.00001268     -5927.7814260733 -1.12E-04
    12 OT DIIS     0.15E+00   22.5     0.00001132     -5927.7814909899 -6.49E-05
    13 OT DIIS     0.15E+00   22.6     0.00001070     -5927.7815461066 -5.51E-05
    14 OT DIIS     0.15E+00   22.0     0.00001089     -5927.7815876470 -4.15E-05
    15 OT DIIS     0.15E+00   21.9     0.00000875     -5927.7816203524 -3.27E-05
    16 OT DIIS     0.15E+00   21.8     0.00001032     -5927.7816437728 -2.34E-05
    17 OT DIIS     0.15E+00   21.7     0.00000929     -5927.7816611617 -1.74E-05
    18 OT DIIS     0.15E+00   21.2     0.00000642     -5927.7816861949 -2.50E-05
    19 OT DIIS     0.15E+00   21.5     0.00000627     -5927.7817114719 -2.53E-05
    20 OT DIIS     0.15E+00   21.7     0.00000739     -5927.7817123292 -8.57E-07
    21 OT DIIS     0.15E+00   21.5     0.00000698     -5927.7817208338 -8.50E-06
    22 OT DIIS     0.15E+00   21.6     0.00000606     -5927.7817323428 -1.15E-05
    23 OT DIIS     0.15E+00   21.6     0.00000684     -5927.7817320756  2.67E-07
    24 OT DIIS     0.15E+00   21.1     0.00000466     -5927.7817391476 -7.07E-06
    25 OT DIIS     0.15E+00   21.4     0.00000511     -5927.7817416283 -2.48E-06
    26 OT DIIS     0.15E+00   21.5     0.00000461     -5927.7817455627 -3.93E-06
    27 OT DIIS     0.15E+00   21.3     0.00000292     -5927.7817495795 -4.02E-06
    28 OT DIIS     0.15E+00   20.9     0.00000283     -5927.7817535083 -3.93E-06
    29 OT DIIS     0.15E+00   20.8     0.00000309     -5927.7817573169 -3.81E-06
    30 OT DIIS     0.15E+00   20.9     0.00000329     -5927.7817596322 -2.32E-06

  Leaving inner SCF loop after reaching    30 steps.


  Electronic density on regular grids:      -3474.0000000021       -0.0000000021
  Core density on regular grids:             3473.9999999952       -0.0000000048
  Total charge density on r-space grids:       -0.0000000069
  Total charge density g-space grids:          -0.0000000059

  Overlap energy of the core charge distribution:               0.00000032648680
  Self energy of the core charge distribution:             -13965.50565932552126
  Core Hamiltonian energy:                                   3144.07631257993080
  Hartree energy:                                            6203.49342820592938
  Exchange-correlation energy:                              -1307.37924494099889
  Dispersion energy:                                           -2.46659647807224

  Total energy:                                             -5927.78175963224567

  outer SCF iter =    1 RMS gradient =   0.33E-05 energy =      -5927.7817596322

  ----------------------------------- OT ---------------------------------------
  Minimizer      : DIIS                : direct inversion
                                         in the iterative subspace
                                         using   8 DIIS vectors
                                         safer DIIS on
  Preconditioner : FULL_KINETIC        : inversion of T + eS
  Precond_solver : DEFAULT
  stepsize       :    0.15000000                  energy_gap     :    0.00010000
  eps_taylor     :   0.10000E-15                  max_taylor     :             4
  ----------------------------------- OT ---------------------------------------

  Step     Update method      Time    Convergence         Total energy    Change
  ------------------------------------------------------------------------------
     1 OT DIIS     0.15E+00   47.9     0.00000300     -5927.7817635373 -3.91E-06
     2 OT DIIS     0.15E+00   19.9     0.00001631     -5927.7817355376  2.80E-05
     3 OT DIIS     0.15E+00   20.3     0.00000316     -5927.7817684715 -3.29E-05
     4 OT DIIS     0.15E+00   20.8     0.00000163     -5927.7817704924 -2.02E-06
     5 OT DIIS     0.15E+00   21.4     0.00000180     -5927.7817723603 -1.87E-06
     6 OT DIIS     0.15E+00   19.8     0.00000288     -5927.7817830667 -1.07E-05
     7 OT DIIS     0.15E+00   19.1     0.00000252     -5927.7817935117 -1.04E-05
     8 OT DIIS     0.15E+00   19.7     0.00000086     -5927.7817986914 -5.18E-06

  *** SCF run converged in     8 steps ***


  Electronic density on regular grids:      -3474.0000000012       -0.0000000012
  Core density on regular grids:             3473.9999999952       -0.0000000048
  Total charge density on r-space grids:       -0.0000000060
  Total charge density g-space grids:          -0.0000000050

  Overlap energy of the core charge distribution:               0.00000032648680
  Self energy of the core charge distribution:             -13965.50565932552126
  Core Hamiltonian energy:                                   3144.07588895220169
  Hartree energy:                                            6203.49355878897040
  Exchange-correlation energy:                              -1307.37899095546686
  Dispersion energy:                                           -2.46659647807224

  Total energy:                                             -5927.78179869140149

  outer SCF iter =    2 RMS gradient =   0.86E-06 energy =      -5927.7817986914
  outer SCF loop converged in   2 iterations or   38 steps


 ENERGY| Total FORCE_EVAL ( QS ) energy (a.u.):            -5927.781799692280401


 --------  Informations at step =     5 ------------
  Optimization Method        =                 BFGS
  Total Energy               =     -5927.7817996923
  Real energy change         =        -0.0009210824
  Predicted change in energy =        -0.0006065749
  Scaling factor             =         0.0000000000
  Step size                  =         0.0862555270
  Trust radius               =         0.4724315332
  Decrease in energy         =                  YES
  Used time                  =              847.163

  Convergence check :
  Max. step size             =         0.0862555270
  Conv. limit for step size  =         0.0030000000
  Convergence in step size   =                   NO
  RMS step size              =         0.0057892091
  Conv. limit for RMS step   =         0.0015000000
  Convergence in RMS step    =                   NO
  Max. gradient              =         0.0040081260
  Conv. limit for gradients  =         0.0004500000
  Conv. for gradients        =                   NO
  RMS gradient               =         0.0002815697
  Conv. limit for RMS grad.  =         0.0003000000
  Conv. in RMS gradients     =                  YES
 ---------------------------------------------------

 --------------------------
 OPTIMIZATION STEP:      6
 --------------------------

 Number of electrons:                                                       3474
 Number of occupied orbitals:                                               1737
 Number of molecular orbitals:                                              1737

 Number of orbital functions:                                               7524
 Number of independent orbital functions:                                   7524

 Extrapolation method: ASPC


 SCF WAVEFUNCTION OPTIMIZATION

  ----------------------------------- OT ---------------------------------------
  Minimizer      : DIIS                : direct inversion
                                         in the iterative subspace
                                         using   8 DIIS vectors
                                         safer DIIS on
  Preconditioner : FULL_KINETIC        : inversion of T + eS
  Precond_solver : DEFAULT
  stepsize       :    0.15000000                  energy_gap     :    0.00010000
  eps_taylor     :   0.10000E-15                  max_taylor     :             4
  ----------------------------------- OT ---------------------------------------

  Step     Update method      Time    Convergence         Total energy    Change
  ------------------------------------------------------------------------------
     1 OT DIIS     0.15E+00   20.3     0.00004466     -5927.7740696568 -5.93E+03
     2 OT DIIS     0.15E+00   21.7     0.00003833     -5927.7773066836 -3.24E-03
     3 OT DIIS     0.15E+00   21.6     0.00010407     -5927.7775588839 -2.52E-04
     4 OT DIIS     0.15E+00   21.4     0.00004738     -5927.7806194415 -3.06E-03
     5 OT DIIS     0.15E+00   21.4     0.00003650     -5927.7811554561 -5.36E-04
     6 OT DIIS     0.15E+00   21.1     0.00002486     -5927.7819736407 -8.18E-04
     7 OT DIIS     0.15E+00   21.3     0.00003038     -5927.7823679732 -3.94E-04
     8 OT DIIS     0.15E+00   21.4     0.00002077     -5927.7826486477 -2.81E-04
     9 OT DIIS     0.15E+00   22.0     0.00001732     -5927.7828537335 -2.05E-04
    10 OT DIIS     0.15E+00   21.8     0.00001344     -5927.7829529337 -9.92E-05
    11 OT DIIS     0.15E+00   21.4     0.00000955     -5927.7830609733 -1.08E-04
    12 OT DIIS     0.15E+00   21.3     0.00000812     -5927.7831233728 -6.24E-05
    13 OT DIIS     0.15E+00   21.3     0.00000931     -5927.7831636634 -4.03E-05
    14 OT DIIS     0.15E+00   21.4     0.00000770     -5927.7831997833 -3.61E-05
    15 OT DIIS     0.15E+00   20.8     0.00000759     -5927.7832249446 -2.52E-05
    16 OT DIIS     0.15E+00   20.9     0.00000704     -5927.7832442180 -1.93E-05
    17 OT DIIS     0.15E+00   20.6     0.00000742     -5927.7832614173 -1.72E-05
    18 OT DIIS     0.15E+00   20.7     0.00000610     -5927.7832764394 -1.50E-05
    19 OT DIIS     0.15E+00   22.0     0.00000395     -5927.7832950871 -1.86E-05
    20 OT DIIS     0.15E+00   20.9     0.00000473     -5927.7833026182 -7.53E-06
    21 OT DIIS     0.15E+00   21.2     0.00000370     -5927.7833122139 -9.60E-06
    22 OT DIIS     0.15E+00   21.4     0.00000428     -5927.7833171998 -4.99E-06
    23 OT DIIS     0.15E+00   20.9     0.00000464     -5927.7833183707 -1.17E-06
    24 OT DIIS     0.15E+00   21.7     0.00000442     -5927.7833223713 -4.00E-06
    25 OT DIIS     0.15E+00   21.6     0.00000396     -5927.7833256281 -3.26E-06
    26 OT DIIS     0.15E+00   21.9     0.00000376     -5927.7833280228 -2.39E-06
    27 OT DIIS     0.15E+00   21.4     0.00000363     -5927.7833292436 -1.22E-06
    28 OT DIIS     0.15E+00   21.4     0.00000234     -5927.7833296037 -3.60E-07
    29 OT DIIS     0.15E+00   21.9     0.00000228     -5927.7833327167 -3.11E-06
    30 OT DIIS     0.15E+00   21.6     0.00000188     -5927.7833333964 -6.80E-07

  Leaving inner SCF loop after reaching    30 steps.


  Electronic density on regular grids:      -3474.0000000026       -0.0000000026
  Core density on regular grids:             3473.9999999952       -0.0000000048
  Total charge density on r-space grids:       -0.0000000074
  Total charge density g-space grids:          -0.0000000063

  Overlap energy of the core charge distribution:               0.00000032667873
  Self energy of the core charge distribution:             -13965.50565932552126
  Core Hamiltonian energy:                                   3144.07811794170902
  Hartree energy:                                            6203.49314713171043
  Exchange-correlation energy:                              -1307.38254381787942
  Dispersion energy:                                           -2.46639565310177

  Total energy:                                             -5927.78333339640267

  outer SCF iter =    1 RMS gradient =   0.19E-05 energy =      -5927.7833333964

  ----------------------------------- OT ---------------------------------------
  Minimizer      : DIIS                : direct inversion
                                         in the iterative subspace
                                         using   8 DIIS vectors
                                         safer DIIS on
  Preconditioner : FULL_KINETIC        : inversion of T + eS
  Precond_solver : DEFAULT
  stepsize       :    0.15000000                  energy_gap     :    0.00010000
  eps_taylor     :   0.10000E-15                  max_taylor     :             4
  ----------------------------------- OT ---------------------------------------

  Step     Update method      Time    Convergence         Total energy    Change
  ------------------------------------------------------------------------------
     1 OT DIIS     0.15E+00   47.5     0.00000199     -5927.7833340301 -6.34E-07
     2 OT DIIS     0.15E+00   21.2     0.00001182     -5927.7833191289  1.49E-05
     3 OT DIIS     0.15E+00   21.3     0.00000185     -5927.7833359006 -1.68E-05
     4 OT DIIS     0.15E+00   21.3     0.00000096     -5927.7833365928 -6.92E-07

  *** SCF run converged in     4 steps ***


  Electronic density on regular grids:      -3474.0000000020       -0.0000000020
  Core density on regular grids:             3473.9999999952       -0.0000000048
  Total charge density on r-space grids:       -0.0000000069
  Total charge density g-space grids:          -0.0000000058

  Overlap energy of the core charge distribution:               0.00000032667873
  Self energy of the core charge distribution:             -13965.50565932552126
  Core Hamiltonian energy:                                   3144.07812917081719
  Hartree energy:                                            6203.49313247925056
  Exchange-correlation energy:                              -1307.38254359096254
  Dispersion energy:                                           -2.46639565310177

  Total energy:                                             -5927.78333659283817

  outer SCF iter =    2 RMS gradient =   0.96E-06 energy =      -5927.7833365928
  outer SCF loop converged in   2 iterations or   34 steps


 ENERGY| Total FORCE_EVAL ( QS ) energy (a.u.):            -5927.783337559635584


 --------  Informations at step =     6 ------------
  Optimization Method        =                 BFGS
  Total Energy               =     -5927.7833375596
  Real energy change         =        -0.0015378674
  Predicted change in energy =        -0.0012604782
  Scaling factor             =         0.0000000000
  Step size                  =         0.1719751581
  Trust radius               =         0.4724315332
  Decrease in energy         =                  YES
  Used time                  =              770.181

  Convergence check :
  Max. step size             =         0.1719751581
  Conv. limit for step size  =         0.0030000000
  Convergence in step size   =                   NO
  RMS step size              =         0.0121126139
  Conv. limit for RMS step   =         0.0015000000
  Convergence in RMS step    =                   NO
  Max. gradient              =         0.0035101300
  Conv. limit for gradients  =         0.0004500000
  Conv. for gradients        =                   NO
  RMS gradient               =         0.0002660153
  Conv. limit for RMS grad.  =         0.0003000000
  Conv. in RMS gradients     =                  YES
 ---------------------------------------------------

 --------------------------
 OPTIMIZATION STEP:      7
 --------------------------

 Number of electrons:                                                       3474
 Number of occupied orbitals:                                               1737
 Number of molecular orbitals:                                              1737

 Number of orbital functions:                                               7524
 Number of independent orbital functions:                                   7524

 Extrapolation method: ASPC


 SCF WAVEFUNCTION OPTIMIZATION

  ----------------------------------- OT ---------------------------------------
  Minimizer      : DIIS                : direct inversion
                                         in the iterative subspace
                                         using   8 DIIS vectors
                                         safer DIIS on
  Preconditioner : FULL_KINETIC        : inversion of T + eS
  Precond_solver : DEFAULT
  stepsize       :    0.15000000                  energy_gap     :    0.00010000
  eps_taylor     :   0.10000E-15                  max_taylor     :             4
  ----------------------------------- OT ---------------------------------------

  Step     Update method      Time    Convergence         Total energy    Change
  ------------------------------------------------------------------------------
     1 OT DIIS     0.15E+00   21.5     0.00005880     -5927.7682118150 -5.93E+03
     2 OT DIIS     0.15E+00   20.6     0.00004884     -5927.7738633771 -5.65E-03
[...]
 flops     6 x     6 x   448           5974456320       0.0%    100.0%      0.0%
 flops     6 x     9 x    13          29894740200       0.0%    100.0%      0.0%
 flops    13 x     9 x     6          29894740200       0.0%    100.0%      0.0%
 flops     6 x    32 x     6          41932173312       0.0%    100.0%      0.0%
 flops    13 x    32 x    32         173075595264       0.0%    100.0%      0.0%
 flops     6 x    13 x   416         324897540864       0.0%    100.0%      0.0%
 flops    13 x     6 x   416         325891358208       0.0%    100.0%      0.0%
 flops     6 x    13 x   425         331926574200       0.0%    100.0%      0.0%
 flops    13 x     6 x   425         332941892400       0.0%    100.0%      0.0%
 flops     6 x    13 x   448         699779318784       0.0%    100.0%      0.0%
 flops    13 x     6 x   448         701919848448       0.0%    100.0%      0.0%
 flops   416 x   416 x   416        3482506952704     100.0%      0.0%      0.0%
 flops   416 x   416 x   425        3557849651200     100.0%      0.0%      0.0%
 flops   416 x   425 x   416        3557849651200     100.0%      0.0%      0.0%
 flops   425 x   416 x   416        3557849651200     100.0%      0.0%      0.0%
 flops   416 x   425 x   425        3634822360000     100.0%      0.0%      0.0%
 flops   425 x   416 x   425        3634822360000     100.0%      0.0%      0.0%
 flops   425 x   425 x   416        3634822360000     100.0%      0.0%      0.0%
 flops   425 x   425 x   425        3713460343750     100.0%      0.0%      0.0%
 flops    13 x     9 x    13        5424850952820       0.0%    100.0%      0.0%
 flops     6 x    32 x    13        5739790118400       0.0%    100.0%      0.0%
 flops    13 x    32 x     6        5739790118400       0.0%    100.0%      0.0%
 flops   416 x   416 x   448        7500784205824     100.0%      0.0%      0.0%
 flops   416 x   448 x   416        7500784205824     100.0%      0.0%      0.0%
 flops   448 x   416 x   416        7500784205824     100.0%      0.0%      0.0%
 flops   416 x   425 x   448        7663060787200     100.0%      0.0%      0.0%
 flops   416 x   448 x   425        7663060787200     100.0%      0.0%      0.0%
 flops   425 x   416 x   448        7663060787200     100.0%      0.0%      0.0%
 flops   425 x   448 x   416        7663060787200     100.0%      0.0%      0.0%
 flops   448 x   416 x   425        7663060787200     100.0%      0.0%      0.0%
 flops   448 x   425 x   416        7663060787200     100.0%      0.0%      0.0%
 flops   425 x   425 x   448        7828848160000     100.0%      0.0%      0.0%
 flops   425 x   448 x   425        7828848160000     100.0%      0.0%      0.0%
 flops   448 x   425 x   425        7828848160000     100.0%      0.0%      0.0%
 flops   448 x   448 x   416       16155535212544     100.0%      0.0%      0.0%
 flops   416 x   448 x   448       16155535212544     100.0%      0.0%      0.0%
 flops   448 x   416 x   448       16155535212544     100.0%      0.0%      0.0%
 flops   448 x   448 x   425       16505054003200     100.0%      0.0%      0.0%
 flops   425 x   448 x   448       16505054003200     100.0%      0.0%      0.0%
 flops   448 x   425 x   448       16505054003200     100.0%      0.0%      0.0%
 flops   416 x   416 x  1878       21261445570560     100.0%      0.0%      0.0%
 flops   416 x   416 x  1884       21329373511680     100.0%      0.0%      0.0%
 flops   416 x   425 x  1878       21721428768000     100.0%      0.0%      0.0%
 flops   425 x   416 x  1878       21721428768000     100.0%      0.0%      0.0%
 flops   416 x   425 x  1884       21790826304000     100.0%      0.0%      0.0%
 flops   425 x   416 x  1884       21790826304000     100.0%      0.0%      0.0%
 flops   425 x   425 x  1878       22191363525000     100.0%      0.0%      0.0%
 flops   425 x   425 x  1884       22262262450000     100.0%      0.0%      0.0%
 flops  1878 x   416 x   416       26373032484864     100.0%      0.0%      0.0%
 flops  1884 x   416 x   416       26457291374592     100.0%      0.0%      0.0%
 flops  1878 x   416 x   425       26943602899200     100.0%      0.0%      0.0%
 flops  1878 x   425 x   416       26943602899200     100.0%      0.0%      0.0%
 flops  1884 x   416 x   425       27029684697600     100.0%      0.0%      0.0%
 flops  1884 x   425 x   416       27029684697600     100.0%      0.0%      0.0%
 flops  1878 x   425 x   425       27526517385000     100.0%      0.0%      0.0%
 flops  1884 x   425 x   425       27614461530000     100.0%      0.0%      0.0%
 flops   448 x   448 x   448       34796537380864     100.0%      0.0%      0.0%
 flops   416 x   448 x  1878       45793882767360     100.0%      0.0%      0.0%
 flops   448 x   416 x  1878       45793882767360     100.0%      0.0%      0.0%
 flops   416 x   448 x  1884       45940189102080     100.0%      0.0%      0.0%
 flops   448 x   416 x  1884       45940189102080     100.0%      0.0%      0.0%
 flops   425 x   448 x  1878       46784615808000     100.0%      0.0%      0.0%
 flops   448 x   425 x  1878       46784615808000     100.0%      0.0%      0.0%
 flops   425 x   448 x  1884       46934087424000     100.0%      0.0%      0.0%
 flops   448 x   425 x  1884       46934087424000     100.0%      0.0%      0.0%
 flops  1878 x   416 x  1878       51057994291200     100.0%      0.0%      0.0%
 flops  1878 x   416 x  1884       51221118873600     100.0%      0.0%      0.0%
 flops  1884 x   416 x  1878       51221118873600     100.0%      0.0%      0.0%
 flops  1884 x   416 x  1884       51384764620800     100.0%      0.0%      0.0%
 flops  1878 x   425 x  1878       52162614360000     100.0%      0.0%      0.0%
 flops  1878 x   425 x  1884       52329268080000     100.0%      0.0%      0.0%
 flops  1884 x   425 x  1878       52329268080000     100.0%      0.0%      0.0%
 flops  1884 x   425 x  1884       52496454240000     100.0%      0.0%      0.0%
 flops  1878 x   448 x   416       56803454582784     100.0%      0.0%      0.0%
 flops  1878 x   416 x   448       56803454582784     100.0%      0.0%      0.0%
 flops  1884 x   416 x   448       56984935268352     100.0%      0.0%      0.0%
 flops  1884 x   448 x   416       56984935268352     100.0%      0.0%      0.0%
 flops  1878 x   448 x   425       58032375475200     100.0%      0.0%      0.0%
 flops  1878 x   425 x   448       58032375475200     100.0%      0.0%      0.0%
 flops  1884 x   425 x   448       58217782425600     100.0%      0.0%      0.0%
 flops  1884 x   448 x   425       58217782425600     100.0%      0.0%      0.0%
 flops    13 x    13 x   416       59236565466624       0.0%    100.0%      0.0%
 flops    13 x    13 x   425       60518125777200       0.0%    100.0%      0.0%
 flops   448 x   448 x  1878       98632978268160     100.0%      0.0%      0.0%
 flops   448 x   448 x  1884       98948099604480     100.0%      0.0%      0.0%
 flops  1878 x   448 x  1878      109971064627200     100.0%      0.0%      0.0%
 flops  1878 x   448 x  1884      110322409881600     100.0%      0.0%      0.0%
 flops  1884 x   448 x  1878      110322409881600     100.0%      0.0%      0.0%
 flops  1884 x   448 x  1884      110674877644800     100.0%      0.0%      0.0%
 flops  1878 x   448 x   448      122345902178304     100.0%      0.0%      0.0%
 flops  1884 x   448 x   448      122736783654912     100.0%      0.0%      0.0%
 flops    13 x    13 x   448      127586448697344       0.0%    100.0%      0.0%
 flops    13 x    32 x    13     1041571382941440       0.0%    100.0%      0.0%
 flops inhomo. stacks                           0       0.0%      0.0%      0.0%
 flops total                         4.081468E+15      67.9%     32.1%      0.0%
 flops max/rank                    270.626191E+12      66.9%     33.1%      0.0%
 matmuls inhomo. stacks                         0       0.0%      0.0%      0.0%
 matmuls total                       102179663436       0.0%    100.0%      0.0%
 number of processed stacks             110129734       3.8%     96.2%      0.0%
 average stack size                                     1.0     964.3       0.0
 marketing flops                     5.501710E+15
 -------------------------------------------------------------------------------
 # multiplications                          79369
 max memory usage/rank               2.048606E+09
 # max total images/rank                        1
 # max 3D layers                                1
 # MPI messages exchanged                 7619424
 MPI messages size (bytes):
  total size                        41.961784E+12
  min size                           0.000000E+00
  max size                          28.395648E+06
  average size                       5.507212E+06
 MPI breakdown and total messages size (bytes):
             size <=      128               27588                        0
       128 < size <=     8192                   0                        0
      8192 < size <=    32768                   0                        0
     32768 < size <=   131072                2508                277771032
    131072 < size <=  4194304             3295728            4971884177016
   4194304 < size <= 16777216             3916284           28076724148896
  16777216 < size                          377316            8902584949968
 -------------------------------------------------------------------------------

 MEMORY| Estimated peak process memory [MiB]                                1954

 -------------------------------------------------------------------------------
 -                                                                             -
 -                         MESSAGE PASSING PERFORMANCE                         -
 -                                                                             -
 -------------------------------------------------------------------------------

 ROUTINE             CALLS      AVE VOLUME [Bytes]
 MP_Group             2285
 MP_Bcast            26533                  17826.
 MP_Allreduce       505975                    227.
 MP_Sync                 4
 MP_Alltoall        339518               36759824.
 MP_SendRecv          8040                  25754.
 MP_ISendRecv       256530                 730080.
 MP_Wait           4257323
 MP_ISend          1408036                2360214.
 MP_IRecv          1408036                2365118.
 MP_Recv             20196                1429353.
 MP_Memory         3498126
 -------------------------------------------------------------------------------


 -------------------------------------------------------------------------------
 -                                                                             -
 -                           R E F E R E N C E S                               -
 -                                                                             -
 -------------------------------------------------------------------------------
 
 CP2K version 7.0 (Development Version), the CP2K developers group (2018).
 CP2K is freely available from https://www.cp2k.org/ .

 Schuett, Ole; Messmer, Peter; Hutter, Juerg; VandeVondele, Joost. 
 Electronic Structure Calculations on Graphics Processing Units, John Wiley & Sons, Ltd, 173-190 (2016). 
 GPU-Accelerated Sparse Matrix-Matrix Multiplication for Linear Scaling Density Functional Theory.
 http://dx.doi.org/10.1002/9781118670712.ch8


 Borstnik, U; VandeVondele, J; Weber, V; Hutter, J. 
 PARALLEL COMPUTING, 40 (5-6), 47-58 (2014). 
 Sparse matrix multiplication: The distributed block-compressed sparse
 row library.
 http://dx.doi.org/10.1016/j.parco.2014.03.012


 Hutter, J; Iannuzzi, M; Schiffmann, F; VandeVondele, J. 
 WILEY INTERDISCIPLINARY REVIEWS-COMPUTATIONAL MOLECULAR SCIENCE, 4 (1), 15-25 (2014). 
 CP2K: atomistic simulations of condensed matter systems.
 http://dx.doi.org/10.1002/wcms.1159


 Grimme, S; Ehrlich, S; Goerigk, L. 
 JOURNAL OF COMPUTATIONAL CHEMISTRY, 32, 1456 (2011). 
 Effect of the damping function in dispersion corrected density functional theory.
 http://dx.doi.org/10.1002/jcc.21759


 Grimme, S; Antony, J; Ehrlich, S; Krieg, H. 
 JOURNAL OF CHEMICAL PHYSICS, 132 (15), 154104 (2010). 
 A consistent and accurate ab initio parametrization of density
 functional dispersion correction (DFT-D) for the 94 elements H-Pu.
 http://dx.doi.org/10.1063/1.3382344


 VandeVondele, J; Hutter, J. 
 JOURNAL OF CHEMICAL PHYSICS, 127 (11), 114105 (2007). 
 Gaussian basis sets for accurate calculations on molecular systems in
 gas and condensed phases.
 http://dx.doi.org/10.1063/1.2770708


 Krack, M. 
 THEORETICAL CHEMISTRY ACCOUNTS, 114 (1-3), 145-152 (2005). 
 Pseudopotentials for H to Kr optimized for gradient-corrected
 exchange-correlation functionals.
 http://dx.doi.org/10.1007/s00214-005-0655-y


 VandeVondele, J; Krack, M; Mohamed, F; Parrinello, M; Chassaing, T;
 Hutter, J. COMPUTER PHYSICS COMMUNICATIONS, 167 (2), 103-128 (2005). 
 QUICKSTEP: Fast and accurate density functional calculations using a
 mixed Gaussian and plane waves approach.
 http://dx.doi.org/10.1016/j.cpc.2004.12.014


 Frigo, M; Johnson, SG. 
 PROCEEDINGS OF THE IEEE, 93 (2), 216-231 (2005). 
 The design and implementation of FFTW3.
 http://dx.doi.org/10.1109/JPROC.2004.840301


 Kolafa, J. 
 JOURNAL OF COMPUTATIONAL CHEMISTRY, 25 (3), 335-342 (2004). 
 Time-reversible always stable predictor-corrector method for molecular dynamics of polarizable molecules.
 http://dx.doi.org/10.1002/jcc.10385


 VandeVondele, J; Hutter, J. 
 JOURNAL OF CHEMICAL PHYSICS, 118 (10), 4365-4369 (2003). 
 An efficient orbital transformation method for electronic structure
 calculations.
 http://dx.doi.org/10.1063/1.1543154


 Hartwigsen, C; Goedecker, S; Hutter, J. 
 PHYSICAL REVIEW B, 58 (7), 3641-3662 (1998). 
 Relativistic separable dual-space Gaussian pseudopotentials from H to Rn.
 http://dx.doi.org/10.1103/PhysRevB.58.3641


 Lippert, G; Hutter, J; Parrinello, M. 
 MOLECULAR PHYSICS, 92 (3), 477-487 (1997). 
 A hybrid Gaussian and plane wave density functional scheme.
 http://dx.doi.org/10.1080/002689797170220


 Perdew, JP; Burke, K; Ernzerhof, M. 
 PHYSICAL REVIEW LETTERS, 77 (18), 3865-3868 (1996). 
 Generalized gradient approximation made simple.
 http://dx.doi.org/10.1103/PhysRevLett.77.3865


 Goedecker, S; Teter, M; Hutter, J. 
 PHYSICAL REVIEW B, 54 (3), 1703-1710 (1996). 
 Separable dual-space Gaussian pseudopotentials.
 http://dx.doi.org/10.1103/PhysRevB.54.1703


 -------------------------------------------------------------------------------
 -                                                                             -
 -                                T I M I N G                                  -
 -                                                                             -
 -------------------------------------------------------------------------------
 SUBROUTINE                       CALLS  ASD         SELF TIME        TOTAL TIME
                                MAXIMUM       AVERAGE  MAXIMUM  AVERAGE  MAXIMUM
 CP2K                                 1  1.0     0.07     0.08 89070.76 89071.41
 cp_geo_opt                           1  2.0     0.00     0.00 89068.09 89068.73
 geoopt_bfgs                          1  3.0     0.15     0.21 89068.09 89068.73
 cp_eval_at                         135  4.0     0.03     0.04 88957.49 88958.16
 qs_forces                          134  5.0     0.04     0.04 88653.45 88654.09
 qs_energies                        135  6.0     0.02     0.02 86817.38 86820.78
 scf_env_do_scf                     135  7.0     0.02     0.06 85108.83 85109.46
 scf_env_do_scf_inner_loop         4141  8.0     0.29     0.66 81495.01 81661.36
 rebuild_ks_matrix                 4275  9.9     0.04     0.05 52108.88 52255.56
 qs_ks_build_kohn_sham_matrix      4275 10.9     0.96     1.00 52108.84 52255.52
 qs_ks_update_qs_env               4350  9.0     0.09     0.10 50438.03 50579.82
 pw_transfer                      81365 13.6    10.27    11.30 38501.41 38762.07
 fft_wrap_pw1pw2                  72815 14.6     1.24     1.31 38164.17 38438.78
 fft_wrap_pw1pw2_150              47162 15.7  2723.54  2958.02 36516.46 36813.40
 qs_vxc_create                     4275 11.9     0.14     0.15 29813.12 29936.55
 xc_vxc_pw_create                  4275 12.9   358.68   412.32 29812.98 29936.40
 fft3d_ps                         72815 16.6 13420.13 14199.82 26258.54 26768.64
 dbcsr_multiply_generic           79369 14.0     9.10     9.59 18071.75 18262.54
 qs_rho_update_rho                 4276  9.0     0.06     0.07 17509.61 17591.37
 calculate_rho_elec                4276 10.0  7253.69  7459.41 17509.55 17591.31
 qs_scf_new_mos                    4141  9.0     0.06     0.07 16494.93 16697.16
 qs_scf_loop_do_ot                 4141 10.0     0.05     0.06 16494.87 16697.10
 sum_up_and_integrate              4275 11.9    84.10    93.76 15399.11 15405.01
 ot_scf_mini                       4141 11.0     0.36     0.40 15141.92 15341.23
 integrate_v_rspace                4275 12.9  8644.50  9035.16 15315.01 15323.87
 multiply_cannon                  79369 15.0    17.98    19.18 14450.98 15031.62
 xc_rho_set_and_dset_create        4275 13.9   144.12   153.82 14229.68 14324.86
 multiply_cannon_multrec         317476 16.0 11769.60 12478.46 11771.59 12480.53
 ot_mini                           4141 12.0     0.04     0.05 10128.37 10352.80
 density_rs2pw                     4276 11.0     0.30     0.31  9428.15  9737.27
 mp_alltoall_z22v                 72815 18.6  7085.74  8644.94  7085.74  8644.94
 x_to_yz                          38476 18.1  3168.56  3394.71  6818.31  7323.84
 yz_to_x                          34339 17.1  2582.13  2705.18  6018.13  6791.95
 qs_ot_get_derivative              4141 13.0     0.07     0.09  6483.71  6685.83
 pw_gather_p                      34339 16.1  5864.70  6046.19  5864.70  6046.19
 potential_pw2rs                   4275 13.9     7.38     7.96  5673.97  5682.61
 qs_ot_get_derivative_taylor       3975 14.0     0.23     0.27  4139.48  4334.12
 ot_diis_step                      4141 13.0     0.32     0.35  3594.08  3594.11
 init_scf_loop                      209  8.0     0.01     0.01  3444.55  3444.93
 rs_pw_transfer                   34473 13.4     0.82     0.85  3190.44  3414.47
 pw_scatter_p                     38476 17.1  3236.09  3352.51  3236.09  3352.51
 apply_preconditioner_dbcsr        4350 14.0     0.02     0.02  3170.72  3260.31
 apply_single                      4350 15.0     0.02     0.03  3170.70  3260.29
 xc_functional_eval                4275 14.9     0.08     0.09  2962.74  3054.56
 pbe_lda_eval                      4275 15.9  2962.67  3054.49  2962.67  3054.49
 mp_waitall_1                   4118355 17.6  2561.26  2765.96  2561.26  2765.96
 make_m2s                        158738 15.0     5.63     5.99  2196.74  2296.90
 pw_derive                        25650 14.4  1689.98  1934.12  1689.98  1934.12
 make_images                     158738 16.0    27.79    28.72  1692.16  1786.26
 multiply_cannon_metrocomm1      317476 16.0     1.83     1.95  1320.02  1785.91
 -------------------------------------------------------------------------------

 The number of warnings for this run is : 1
 
 -------------------------------------------------------------------------------
  **** **** ******  **  PROGRAM ENDED AT                 2023-10-12 00:30:26.014
 ***** ** ***  *** **   PROGRAM RAN ON                                sebnode128
 **    ****   ******    PROGRAM RAN BY                                    luehrs
 ***** **    ** ** **   PROGRAM PROCESS ID                               1934321
  **** **  *******  **  PROGRAM STOPPED IN /home/luehrs/PhD/Li-S_paper/Li-S-Surf
                                           ace_Reaction/Third_Lithiation_of_S8_S
                                           urface/Third_Lithiation_around_S8/Thi
                                           rd_Lithiation_U4/Third_Lithiation_ort
                                           hogonal/5.S8_o
