 DBCSR| Multiplication driver                                               XSMM
 DBCSR| Multrec recursion limit                                              512
 DBCSR| Multiplication stack size                                           1000
 DBCSR| Maximum elements for images                                    UNLIMITED
 DBCSR| Multiplicative factor virtual images                                   1
 DBCSR| Multiplication size stacks                                             3
 DBCSR| Number of 3D layers                                               SINGLE
 DBCSR| Use MPI memory allocation                                              T
 DBCSR| Use RMA algorithm                                                      F
 DBCSR| Use Communication thread                                               T
 DBCSR| Communication thread load                                             87


  **** **** ******  **  PROGRAM STARTED AT               2023-10-09 19:08:36.171
 ***** ** ***  *** **   PROGRAM STARTED ON                            sebnode109
 **    ****   ******    PROGRAM STARTED BY                                luehrs
 ***** **    ** ** **   PROGRAM PROCESS ID                               2061479
  **** **  *******  **  PROGRAM STARTED IN /home/luehrs/PhD/Li-S_paper/Li-S-Surf
                                           ace_Reaction/Third_Lithiation_of_S8_S
                                           urface/Third_Lithiation_around_S8/Thi
                                           rd_Lithiation_L4/Third_Lithiation_ort
                                           hogonal/2.S8_o

 CP2K| version string:                    CP2K version 7.0 (Development Version)
 CP2K| source code revision number:                                             
 CP2K| cp2kflags: libint fftw3 libxc parallel mpi3 scalapack xsmm libderiv_max_a
 CP2K|            m1=8 libint_max_am=9 max_contr=4
 CP2K| is freely available from                            https://www.cp2k.org/
 CP2K| Program compiled at                         Sun Jun 24 14:37:16 CEST 2018
 CP2K| Program compiled on                                            sebstorage
 CP2K| Program compiled for                                Linux-x86-64-gfortran
 CP2K| Data directory path    /home/brehm/Software_Batchnode/2018/Source/cp2k_18
 CP2K| Input file name                                                input2.inp

 GLOBAL| Force Environment number                                              1
 GLOBAL| Basis set file name                                      ./BASIS_MOLOPT
 GLOBAL| Potential file name                                    ./GTH_POTENTIALS
 GLOBAL| MM Potential file name                                     MM_POTENTIAL
 GLOBAL| Coordinate file name              ./Third_lithiation_S8_2.o_relaxed.xyz
 GLOBAL| Method name                                                        CP2K
 GLOBAL| Project name                                                   Li_react
 GLOBAL| Preferred FFT library                                             FFTW3
 GLOBAL| Preferred diagonalization lib.                                       SL
 GLOBAL| Run type                                                        GEO_OPT
 GLOBAL| All-to-all communication in single precision                          F
 GLOBAL| FFTs using library dependent lengths                                  F
 GLOBAL| Global print level                                                  LOW
 GLOBAL| Total number of message passing processes                            16
 GLOBAL| Number of threads for this process                                    1
 GLOBAL| This output is from process                                           0
 GLOBAL| CPU model name :  Intel(R) Xeon(R) CPU E5-2620 v4 @ 2.10GHz

 MEMORY| system memory details [Kb]
 MEMORY|                        rank 0           min           max       average
 MEMORY| MemTotal             65842944      65842944      65842944      65842944
 MEMORY| MemFree              45209724      45209724      45209724      45209724
 MEMORY| Buffers               1249616       1249616       1249616       1249616
 MEMORY| Cached               15790636      15790636      15790636      15790636
 MEMORY| Slab                  1431664       1431664       1431664       1431664
 MEMORY| SReclaimable           835744        835744        835744        835744
 MEMORY| MemLikelyFree        63085720      63085720      63085720      63085720


 GENERATE|  Preliminary Number of Bonds generated:                             0
 GENERATE|  Achieved consistency in connectivity generation.

 *******************************************************************************
 *******************************************************************************
 **                                                                           **
 **     #####                         ##              ##                      **
 **    ##   ##            ##          ##              ##                      **
 **   ##     ##                       ##            ######                    **
 **   ##     ##  ##   ##  ##   #####  ##  ##   ####   ##    #####    #####    **
 **   ##     ##  ##   ##  ##  ##      ## ##   ##      ##   ##   ##  ##   ##   **
 **   ##  ## ##  ##   ##  ##  ##      ####     ###    ##   ######   ######    **
 **    ##  ###   ##   ##  ##  ##      ## ##      ##   ##   ##       ##        **
 **     #######   #####   ##   #####  ##  ##  ####    ##    #####   ##        **
 **           ##                                                    ##        **
 **                                                                           **
 **                                                ... make the atoms dance   **
 **                                                                           **
 **            Copyright (C) by CP2K developers group (2000 - 2018)           **
 **                                                                           **
 *******************************************************************************


 TOTAL NUMBERS AND MAXIMUM NUMBERS

  Total number of            - Atomic kinds:                                   2
                             - Atoms:                                        582
                             - Shell sets:                                   582
                             - Shells:                                      2904
                             - Primitive Cartesian functions:               3486
                             - Cartesian basis functions:                   8100
                             - Spherical basis functions:                   7524

  Maximum angular momentum of- Orbital basis functions:                        2
                             - Local part of the GTH pseudopotential:          6
                             - Non-local part of the GTH pseudopotential:      2


 SCF PARAMETERS         Density guess:                                   RESTART
                        --------------------------------------------------------
                        max_scf:                                              30
                        max_scf_history:                                       0
                        max_diis:                                              4
                        --------------------------------------------------------
                        eps_scf:                                        1.00E-06
                        eps_scf_history:                                0.00E+00
                        eps_diis:                                       1.00E-01
                        eps_eigval:                                     1.00E-05
                        --------------------------------------------------------
                        level_shift [a.u.]:                                 0.00
                        --------------------------------------------------------
                        Outer loop SCF in use 
                        No variables optimised in outer loop
                        eps_scf                                         1.00E-06
                        max_scf                                               25
                        DIIS optimization
                        DIIS buffer length                                     3
                        step_size                                       5.00E-01

 BFGS| Use rational function optimization for step estimation:                NO
 BFGS| Use model Hessian for initial guess:                                  YES
 BFGS| Restart Hessian:                                                       NO
 BFGS| Trust radius:                                                       0.472

 *******************************************************************************
 ***                     STARTING GEOMETRY OPTIMIZATION                      ***
 ***                                   BFGS                                  ***
 *******************************************************************************

 Number of electrons:                                                       3474
 Number of occupied orbitals:                                               1737
 Number of molecular orbitals:                                              1737

 Number of orbital functions:                                               7524
 Number of independent orbital functions:                                   7524

 Extrapolation method: initial_guess

 *** WARNING in qs_initial_guess.F:263 :: User requested to restart the   ***
 *** wavefunction from the file named: Li_react-RESTART.wfn. This file    ***
 *** does not exist. Please check the existence of the file or change     ***
 *** properly the value of the keyword WFN_RESTART_FILE_NAME. Calculation ***
 *** continues using ATOMIC GUESS.                                        ***



 SCF WAVEFUNCTION OPTIMIZATION

  ----------------------------------- OT ---------------------------------------
  Minimizer      : DIIS                : direct inversion
                                         in the iterative subspace
                                         using   8 DIIS vectors
                                         safer DIIS on
  Preconditioner : FULL_KINETIC        : inversion of T + eS
  Precond_solver : DEFAULT
  stepsize       :    0.15000000                  energy_gap     :    0.00010000
  eps_taylor     :   0.10000E-15                  max_taylor     :             4
  ----------------------------------- OT ---------------------------------------

  Step     Update method      Time    Convergence         Total energy    Change
  ------------------------------------------------------------------------------
     1 OT DIIS     0.15E+00   18.6     0.00640344     -5756.6690773259 -5.76E+03
     2 OT DIIS     0.15E+00   18.5     0.02465433     -5757.9567461801 -1.29E+00
     3 OT DIIS     0.15E+00   18.6     0.00654421     -5810.1569793809 -5.22E+01
     4 OT DIIS     0.15E+00   18.6     0.00689049     -5829.8194955997 -1.97E+01
     5 OT DIIS     0.15E+00   18.7     0.00569825     -5845.5438550278 -1.57E+01
     6 OT DIIS     0.15E+00   18.7     0.00392326     -5857.9586534372 -1.24E+01
     7 OT DIIS     0.15E+00   18.7     0.00266761     -5873.8240173385 -1.59E+01
     8 OT DIIS     0.15E+00   18.7     0.00300974     -5883.8384610671 -1.00E+01
     9 OT DIIS     0.15E+00   18.9     0.00195694     -5891.7732874536 -7.93E+00
    10 OT DIIS     0.15E+00   18.9     0.00185985     -5897.3098862552 -5.54E+00
    11 OT DIIS     0.15E+00   18.9     0.00178263     -5901.1420480213 -3.83E+00
    12 OT DIIS     0.15E+00   18.9     0.00173697     -5904.1993747993 -3.06E+00
    13 OT DIIS     0.15E+00   18.9     0.00135680     -5907.0280120452 -2.83E+00
    14 OT DIIS     0.15E+00   18.8     0.00112861     -5910.0460764841 -3.02E+00
    15 OT DIIS     0.15E+00   18.9     0.00098932     -5912.8436910285 -2.80E+00
    16 OT DIIS     0.15E+00   18.8     0.00091179     -5914.9946540144 -2.15E+00
    17 OT DIIS     0.15E+00   18.7     0.00102485     -5916.5436597819 -1.55E+00
    18 OT DIIS     0.15E+00   18.7     0.00076298     -5918.0237552201 -1.48E+00
    19 OT DIIS     0.15E+00   18.7     0.00075380     -5919.2862153324 -1.26E+00
    20 OT DIIS     0.15E+00   18.7     0.00077695     -5920.1461363964 -8.60E-01
    21 OT DIIS     0.15E+00   18.8     0.00068299     -5921.0546866910 -9.09E-01
    22 OT DIIS     0.15E+00   18.7     0.00059417     -5921.7996091170 -7.45E-01
    23 OT DIIS     0.15E+00   18.8     0.00061780     -5922.5062616048 -7.07E-01
    24 OT DIIS     0.15E+00   18.9     0.00050016     -5923.1566497286 -6.50E-01
    25 OT DIIS     0.15E+00   18.8     0.00044052     -5923.6495277672 -4.93E-01
    26 OT DIIS     0.15E+00   18.7     0.00045817     -5924.1348154591 -4.85E-01
    27 OT DIIS     0.15E+00   18.7     0.00039770     -5924.4004085281 -2.66E-01
    28 OT DIIS     0.15E+00   18.7     0.00038349     -5924.7464377288 -3.46E-01
    29 OT DIIS     0.15E+00   18.7     0.00036780     -5925.0193328033 -2.73E-01
    30 OT DIIS     0.15E+00   18.8     0.00038512     -5925.2488947041 -2.30E-01

  Leaving inner SCF loop after reaching    30 steps.


  Electronic density on regular grids:      -3474.0000000003       -0.0000000003
  Core density on regular grids:             3473.9999999951       -0.0000000049
  Total charge density on r-space grids:       -0.0000000052
  Total charge density g-space grids:          -0.0000000043

  Overlap energy of the core charge distribution:               0.00000032685020
  Self energy of the core charge distribution:             -13965.50565932552126
  Core Hamiltonian energy:                                   3147.47043416949964
  Hartree energy:                                            6202.34461279544303
  Exchange-correlation energy:                              -1307.08495758790968
  Dispersion energy:                                           -2.47332508250826

  Total energy:                                             -5925.24889470414564

  outer SCF iter =    1 RMS gradient =   0.39E-03 energy =      -5925.2488947041

  ----------------------------------- OT ---------------------------------------
  Minimizer      : DIIS                : direct inversion
                                         in the iterative subspace
                                         using   8 DIIS vectors
                                         safer DIIS on
  Preconditioner : FULL_KINETIC        : inversion of T + eS
  Precond_solver : DEFAULT
  stepsize       :    0.15000000                  energy_gap     :    0.00010000
  eps_taylor     :   0.10000E-15                  max_taylor     :             4
  ----------------------------------- OT ---------------------------------------

  Step     Update method      Time    Convergence         Total energy    Change
  ------------------------------------------------------------------------------
     1 OT DIIS     0.15E+00   41.6     0.00041983     -5925.4540942967 -2.05E-01
     2 OT DIIS     0.15E+00   18.3     0.00112720     -5925.5548594173 -1.01E-01
     3 OT DIIS     0.15E+00   18.4     0.00042945     -5925.7320366583 -1.77E-01
     4 OT DIIS     0.15E+00   18.8     0.00055107     -5925.8127824841 -8.07E-02
     5 OT DIIS     0.15E+00   18.7     0.00038406     -5926.0326882756 -2.20E-01
     6 OT DIIS     0.15E+00   18.7     0.00031703     -5926.2303296800 -1.98E-01
     7 OT DIIS     0.15E+00   18.6     0.00032750     -5926.3429790829 -1.13E-01
     8 OT DIIS     0.15E+00   19.0     0.00031667     -5926.4569205369 -1.14E-01
     9 OT DIIS     0.15E+00   19.0     0.00025586     -5926.7046739319 -2.48E-01
    10 OT DIIS     0.15E+00   19.1     0.00028782     -5926.7162394128 -1.16E-02
    11 OT DIIS     0.15E+00   19.0     0.00025199     -5926.9075916338 -1.91E-01
    12 OT DIIS     0.15E+00   19.1     0.00028536     -5927.0195214184 -1.12E-01
    13 OT DIIS     0.15E+00   19.2     0.00021924     -5927.0843109271 -6.48E-02
    14 OT DIIS     0.15E+00   19.1     0.00023144     -5927.1614602486 -7.71E-02
    15 OT DIIS     0.15E+00   18.9     0.00017657     -5927.2319306425 -7.05E-02
    16 OT DIIS     0.15E+00   18.8     0.00018063     -5927.2773549240 -4.54E-02
    17 OT DIIS     0.15E+00   18.8     0.00016229     -5927.3118498648 -3.45E-02
    18 OT DIIS     0.15E+00   18.7     0.00013315     -5927.3642915944 -5.24E-02
    19 OT DIIS     0.15E+00   18.8     0.00014520     -5927.3765282498 -1.22E-02
    20 OT DIIS     0.15E+00   18.7     0.00011539     -5927.4064937085 -3.00E-02
    21 OT DIIS     0.15E+00   18.9     0.00012368     -5927.4300919268 -2.36E-02
    22 OT DIIS     0.15E+00   18.9     0.00010875     -5927.4426216291 -1.25E-02
    23 OT DIIS     0.15E+00   18.7     0.00010925     -5927.4597300000 -1.71E-02
    24 OT DIIS     0.15E+00   18.7     0.00009660     -5927.4763536358 -1.66E-02
    25 OT DIIS     0.15E+00   18.7     0.00009498     -5927.4913607821 -1.50E-02
    26 OT DIIS     0.15E+00   18.6     0.00009606     -5927.5049730443 -1.36E-02
    27 OT DIIS     0.15E+00   18.6     0.00008632     -5927.5248512459 -1.99E-02
    28 OT DIIS     0.15E+00   18.6     0.00009113     -5927.5347402881 -9.89E-03
    29 OT DIIS     0.15E+00   18.7     0.00008207     -5927.5512827412 -1.65E-02
    30 OT DIIS     0.15E+00   18.7     0.00008872     -5927.5687748745 -1.75E-02

  Leaving inner SCF loop after reaching    30 steps.


  Electronic density on regular grids:      -3474.0000000005       -0.0000000005
  Core density on regular grids:             3473.9999999951       -0.0000000049
  Total charge density on r-space grids:       -0.0000000053
  Total charge density g-space grids:          -0.0000000043

  Overlap energy of the core charge distribution:               0.00000032685020
  Self energy of the core charge distribution:             -13965.50565932552126
  Core Hamiltonian energy:                                   3144.42712390149336
  Hartree energy:                                            6203.35867331977806
  Exchange-correlation energy:                              -1307.37558801462092
  Dispersion energy:                                           -2.47332508250826

  Total energy:                                             -5927.56877487452857

  outer SCF iter =    2 RMS gradient =   0.89E-04 energy =      -5927.5687748745

  ----------------------------------- OT ---------------------------------------
  Minimizer      : DIIS                : direct inversion
                                         in the iterative subspace
                                         using   8 DIIS vectors
                                         safer DIIS on
  Preconditioner : FULL_KINETIC        : inversion of T + eS
  Precond_solver : DEFAULT
  stepsize       :    0.15000000                  energy_gap     :    0.00010000
  eps_taylor     :   0.10000E-15                  max_taylor     :             4
  ----------------------------------- OT ---------------------------------------

  Step     Update method      Time    Convergence         Total energy    Change
  ------------------------------------------------------------------------------
     1 OT DIIS     0.15E+00   42.5     0.00009318     -5927.5786001885 -9.83E-03
     2 OT DIIS     0.15E+00   18.1     0.00032055     -5927.5802411713 -1.64E-03
     3 OT DIIS     0.15E+00   18.1     0.00008601     -5927.5927974662 -1.26E-02
     4 OT DIIS     0.15E+00   18.2     0.00009448     -5927.5977004192 -4.90E-03
     5 OT DIIS     0.15E+00   18.3     0.00008875     -5927.6123930670 -1.47E-02
     6 OT DIIS     0.15E+00   18.3     0.00008230     -5927.6261620040 -1.38E-02
     7 OT DIIS     0.15E+00   18.3     0.00007569     -5927.6317502634 -5.59E-03
     8 OT DIIS     0.15E+00   18.9     0.00007580     -5927.6434513481 -1.17E-02
     9 OT SD       0.15E+00   19.2     0.00008096     -5927.6681863377 -2.47E-02
    10 OT DIIS     0.15E+00   19.4     0.00029754     -5927.6652010401  2.99E-03
    11 OT DIIS     0.15E+00   19.4     0.00010049     -5927.6941658696 -2.90E-02
    12 OT DIIS     0.15E+00   19.3     0.00007320     -5927.7232665617 -2.91E-02
    13 OT DIIS     0.15E+00   19.3     0.00008953     -5927.7379123054 -1.46E-02
    14 OT DIIS     0.15E+00   19.3     0.00009766     -5927.7468225229 -8.91E-03
    15 OT DIIS     0.15E+00   19.0     0.00007741     -5927.7579149554 -1.11E-02
    16 OT DIIS     0.15E+00   19.1     0.00006740     -5927.7613591617 -3.44E-03
    17 OT DIIS     0.15E+00   19.2     0.00006050     -5927.7613151766  4.40E-05
    18 OT DIIS     0.15E+00   19.2     0.00003891     -5927.7661284301 -4.81E-03
    19 OT DIIS     0.15E+00   19.1     0.00003677     -5927.7675736329 -1.45E-03
    20 OT DIIS     0.15E+00   19.1     0.00003838     -5927.7689003025 -1.33E-03
    21 OT DIIS     0.15E+00   19.2     0.00003160     -5927.7703970929 -1.50E-03
    22 OT DIIS     0.15E+00   19.3     0.00002855     -5927.7713834210 -9.86E-04
    23 OT DIIS     0.15E+00   19.3     0.00002924     -5927.7719988611 -6.15E-04
    24 OT DIIS     0.15E+00   19.2     0.00003771     -5927.7726407186 -6.42E-04
    25 OT DIIS     0.15E+00   19.1     0.00002994     -5927.7734721984 -8.31E-04
    26 OT DIIS     0.15E+00   19.1     0.00002093     -5927.7738784331 -4.06E-04
    27 OT DIIS     0.15E+00   19.1     0.00002242     -5927.7747952457 -9.17E-04
    28 OT DIIS     0.15E+00   19.1     0.00001998     -5927.7755513714 -7.56E-04
    29 OT DIIS     0.15E+00   19.1     0.00001990     -5927.7760786110 -5.27E-04
    30 OT DIIS     0.15E+00   19.2     0.00002285     -5927.7766689732 -5.90E-04

  Leaving inner SCF loop after reaching    30 steps.


  Electronic density on regular grids:      -3474.0000000005       -0.0000000005
  Core density on regular grids:             3473.9999999951       -0.0000000049
  Total charge density on r-space grids:       -0.0000000053
  Total charge density g-space grids:          -0.0000000043

  Overlap energy of the core charge distribution:               0.00000032685020
  Self energy of the core charge distribution:             -13965.50565932552126
  Core Hamiltonian energy:                                   3144.21298060054596
  Hartree energy:                                            6203.39882500333260
  Exchange-correlation energy:                              -1307.40949049585242
  Dispersion energy:                                           -2.47332508250826

  Total energy:                                             -5927.77666897315248

  outer SCF iter =    3 RMS gradient =   0.23E-04 energy =      -5927.7766689732

  ----------------------------------- OT ---------------------------------------
  Minimizer      : DIIS                : direct inversion
                                         in the iterative subspace
                                         using   8 DIIS vectors
                                         safer DIIS on
  Preconditioner : FULL_KINETIC        : inversion of T + eS
  Precond_solver : DEFAULT
  stepsize       :    0.15000000                  energy_gap     :    0.00010000
  eps_taylor     :   0.10000E-15                  max_taylor     :             4
  ----------------------------------- OT ---------------------------------------

  Step     Update method      Time    Convergence         Total energy    Change
  ------------------------------------------------------------------------------
     1 OT DIIS     0.15E+00   41.7     0.00002240     -5927.7772368116 -5.68E-04
     2 OT DIIS     0.15E+00   18.2     0.00010281     -5927.7766031653  6.34E-04
     3 OT DIIS     0.15E+00   18.2     0.00001747     -5927.7778661727 -1.26E-03
     4 OT DIIS     0.15E+00   18.2     0.00002097     -5927.7780948452 -2.29E-04
     5 OT DIIS     0.15E+00   18.3     0.00002291     -5927.7787255507 -6.31E-04
     6 OT DIIS     0.15E+00   18.2     0.00001743     -5927.7794447537 -7.19E-04
     7 OT DIIS     0.15E+00   18.2     0.00001515     -5927.7796976134 -2.53E-04
     8 OT DIIS     0.15E+00   18.6     0.00001603     -5927.7802125771 -5.15E-04
     9 OT SD       0.15E+00   18.9     0.00001462     -5927.7811686144 -9.56E-04
    10 OT DIIS     0.15E+00   18.9     0.00005406     -5927.7808723079  2.96E-04
    11 OT DIIS     0.15E+00   18.7     0.00001293     -5927.7819188455 -1.05E-03
    12 OT DIIS     0.15E+00   18.9     0.00001078     -5927.7822347560 -3.16E-04
    13 OT DIIS     0.15E+00   18.9     0.00000827     -5927.7823334525 -9.87E-05
    14 OT DIIS     0.15E+00   18.9     0.00000962     -5927.7824749334 -1.41E-04
    15 OT DIIS     0.15E+00   18.7     0.00000791     -5927.7826519423 -1.77E-04
    16 OT DIIS     0.15E+00   18.8     0.00000816     -5927.7827252792 -7.33E-05
    17 OT DIIS     0.15E+00   18.6     0.00000780     -5927.7827601086 -3.48E-05
    18 OT DIIS     0.15E+00   18.5     0.00000822     -5927.7830567790 -2.97E-04
    19 OT DIIS     0.15E+00   18.5     0.00000678     -5927.7832021752 -1.45E-04
    20 OT DIIS     0.15E+00   18.5     0.00000718     -5927.7833993249 -1.97E-04
    21 OT DIIS     0.15E+00   18.5     0.00000701     -5927.7835950851 -1.96E-04
    22 OT DIIS     0.15E+00   18.6     0.00000638     -5927.7837809123 -1.86E-04
    23 OT DIIS     0.15E+00   18.5     0.00000767     -5927.7840737438 -2.93E-04
    24 OT DIIS     0.15E+00   18.7     0.00000704     -5927.7844114893 -3.38E-04
    25 OT DIIS     0.15E+00   18.7     0.00000721     -5927.7846044200 -1.93E-04
    26 OT DIIS     0.15E+00   18.6     0.00000788     -5927.7846853357 -8.09E-05
    27 OT DIIS     0.15E+00   18.5     0.00000723     -5927.7849061841 -2.21E-04
    28 OT DIIS     0.15E+00   18.5     0.00000586     -5927.7850844018 -1.78E-04
    29 OT DIIS     0.15E+00   18.6     0.00000582     -5927.7851801065 -9.57E-05
    30 OT DIIS     0.15E+00   18.5     0.00000576     -5927.7853480874 -1.68E-04

  Leaving inner SCF loop after reaching    30 steps.


  Electronic density on regular grids:      -3474.0000023996       -0.0000023996
  Core density on regular grids:             3473.9999999951       -0.0000000049
  Total charge density on r-space grids:       -0.0000024045
  Total charge density g-space grids:          -0.0000024034

  Overlap energy of the core charge distribution:               0.00000032685020
  Self energy of the core charge distribution:             -13965.50565932552126
  Core Hamiltonian energy:                                   3144.20115072372300
  Hartree energy:                                            6203.40531451441620
  Exchange-correlation energy:                              -1307.41282924434654
  Dispersion energy:                                           -2.47332508250826

  Total energy:                                             -5927.78534808738641

  outer SCF iter =    4 RMS gradient =   0.58E-05 energy =      -5927.7853480874

  ----------------------------------- OT ---------------------------------------
  Minimizer      : DIIS                : direct inversion
                                         in the iterative subspace
                                         using   8 DIIS vectors
                                         safer DIIS on
  Preconditioner : FULL_KINETIC        : inversion of T + eS
  Precond_solver : DEFAULT
  stepsize       :    0.15000000                  energy_gap     :    0.00010000
  eps_taylor     :   0.10000E-15                  max_taylor     :             4
  ----------------------------------- OT ---------------------------------------

  Step     Update method      Time    Convergence         Total energy    Change
  ------------------------------------------------------------------------------
     1 OT DIIS     0.15E+00   42.7     0.00000566     -5927.7854748348 -1.27E-04
     2 OT DIIS     0.15E+00   18.0     0.00002191     -5927.7854527066  2.21E-05
     3 OT DIIS     0.15E+00   18.0     0.00000531     -5927.7855176812 -6.50E-05
     4 OT DIIS     0.15E+00   18.0     0.00000471     -5927.7855273413 -9.66E-06
     5 OT DIIS     0.15E+00   18.1     0.00000485     -5927.7855603702 -3.30E-05
     6 OT DIIS     0.15E+00   18.3     0.00000513     -5927.7856739508 -1.14E-04
     7 OT DIIS     0.15E+00   18.3     0.00000409     -5927.7857214866 -4.75E-05
     8 OT DIIS     0.15E+00   18.5     0.00000539     -5927.7857772766 -5.58E-05
     9 OT DIIS     0.15E+00   18.9     0.00000374     -5927.7858603133 -8.30E-05
    10 OT DIIS     0.15E+00   18.8     0.00000333     -5927.7858862092 -2.59E-05
    11 OT DIIS     0.15E+00   18.9     0.00000384     -5927.7859502392 -6.40E-05
    12 OT DIIS     0.15E+00   18.9     0.00000355     -5927.7859881446 -3.79E-05
    13 OT DIIS     0.15E+00   18.9     0.00000361     -5927.7860054370 -1.73E-05
    14 OT DIIS     0.15E+00   18.9     0.00000298     -5927.7860329241 -2.75E-05
    15 OT DIIS     0.15E+00   18.9     0.00000310     -5927.7860731026 -4.02E-05
    16 OT DIIS     0.15E+00   18.7     0.00000280     -5927.7860945880 -2.15E-05
    17 OT DIIS     0.15E+00   18.6     0.00000287     -5927.7861242248 -2.96E-05
    18 OT DIIS     0.15E+00   18.5     0.00000279     -5927.7861678244 -4.36E-05
    19 OT DIIS     0.15E+00   18.5     0.00000265     -5927.7861927895 -2.50E-05
    20 OT DIIS     0.15E+00   18.4     0.00000291     -5927.7862389871 -4.62E-05
    21 OT DIIS     0.15E+00   18.4     0.00000270     -5927.7862767661 -3.78E-05
    22 OT DIIS     0.15E+00   18.5     0.00000282     -5927.7863027650 -2.60E-05
    23 OT DIIS     0.15E+00   18.5     0.00000258     -5927.7863385374 -3.58E-05
    24 OT DIIS     0.15E+00   18.5     0.00000274     -5927.7863916414 -5.31E-05
    25 OT DIIS     0.15E+00   18.5     0.00000240     -5927.7864277115 -3.61E-05
    26 OT DIIS     0.15E+00   18.4     0.00000251     -5927.7864702730 -4.26E-05
    27 OT DIIS     0.15E+00   18.4     0.00000258     -5927.7865136702 -4.34E-05
    28 OT DIIS     0.15E+00   18.5     0.00000215     -5927.7865452849 -3.16E-05
    29 OT DIIS     0.15E+00   18.5     0.00000241     -5927.7865784507 -3.32E-05
    30 OT DIIS     0.15E+00   18.4     0.00000217     -5927.7866105079 -3.21E-05

  Leaving inner SCF loop after reaching    30 steps.


  Electronic density on regular grids:      -3474.0000000410       -0.0000000410
  Core density on regular grids:             3473.9999999951       -0.0000000049
  Total charge density on r-space grids:       -0.0000000458
  Total charge density g-space grids:          -0.0000000448

  Overlap energy of the core charge distribution:               0.00000032685020
  Self energy of the core charge distribution:             -13965.50565932552126
  Core Hamiltonian energy:                                   3144.19404602229361
  Hartree energy:                                            6203.40963283725341
  Exchange-correlation energy:                              -1307.41130528630720
  Dispersion energy:                                           -2.47332508250826

  Total energy:                                             -5927.78661050793926

  outer SCF iter =    5 RMS gradient =   0.22E-05 energy =      -5927.7866105079

  ----------------------------------- OT ---------------------------------------
  Minimizer      : DIIS                : direct inversion
                                         in the iterative subspace
                                         using   8 DIIS vectors
                                         safer DIIS on
  Preconditioner : FULL_KINETIC        : inversion of T + eS
  Precond_solver : DEFAULT
  stepsize       :    0.15000000                  energy_gap     :    0.00010000
  eps_taylor     :   0.10000E-15                  max_taylor     :             4
  ----------------------------------- OT ---------------------------------------

  Step     Update method      Time    Convergence         Total energy    Change
  ------------------------------------------------------------------------------
     1 OT DIIS     0.15E+00   41.0     0.00000242     -5927.7866290860 -1.86E-05
     2 OT DIIS     0.15E+00   17.8     0.00001134     -5927.7866194422  9.64E-06
     3 OT DIIS     0.15E+00   18.0     0.00000214     -5927.7866356544 -1.62E-05
     4 OT DIIS     0.15E+00   18.0     0.00000178     -5927.7866370562 -1.40E-06
     5 OT DIIS     0.15E+00   18.0     0.00000212     -5927.7866451950 -8.14E-06
     6 OT DIIS     0.15E+00   18.1     0.00000234     -5927.7866623563 -1.72E-05
     7 OT DIIS     0.15E+00   18.1     0.00000156     -5927.7866688605 -6.50E-06
     8 OT DIIS     0.15E+00   18.6     0.00000180     -5927.7866768560 -8.00E-06
     9 OT DIIS     0.15E+00   18.9     0.00000133     -5927.7866855572 -8.70E-06
    10 OT DIIS     0.15E+00   18.9     0.00000119     -5927.7866877932 -2.24E-06
    11 OT DIIS     0.15E+00   18.8     0.00000167     -5927.7866930073 -5.21E-06
    12 OT DIIS     0.15E+00   18.9     0.00000127     -5927.7866976139 -4.61E-06
    13 OT DIIS     0.15E+00   18.8     0.00000123     -5927.7866988487 -1.23E-06
    14 OT DIIS     0.15E+00   18.9     0.00000107     -5927.7867021244 -3.28E-06
    15 OT DIIS     0.15E+00   18.7     0.00000111     -5927.7867060209 -3.90E-06
    16 OT DIIS     0.15E+00   18.6     0.00000093     -5927.7867086224 -2.60E-06

  *** SCF run converged in    16 steps ***


  Electronic density on regular grids:      -3474.0000000005       -0.0000000005
  Core density on regular grids:             3473.9999999951       -0.0000000049
  Total charge density on r-space grids:       -0.0000000053
  Total charge density g-space grids:          -0.0000000043

  Overlap energy of the core charge distribution:               0.00000032685020
  Self energy of the core charge distribution:             -13965.50565932552126
  Core Hamiltonian energy:                                   3144.19374376313499
  Hartree energy:                                            6203.40994884218617
  Exchange-correlation energy:                              -1307.41141714655032
  Dispersion energy:                                           -2.47332508250826

  Total energy:                                             -5927.78670862240870

  outer SCF iter =    6 RMS gradient =   0.93E-06 energy =      -5927.7867086224
  outer SCF loop converged in   6 iterations or  166 steps


 ENERGY| Total FORCE_EVAL ( QS ) energy (a.u.):            -5927.786711170806484


 --------  Informations at step =     0 ------------
  Optimization Method        =                 BFGS
  Total Energy               =     -5927.7867111708
  Used time                  =             3166.869
 ---------------------------------------------------

 --------------------------
 OPTIMIZATION STEP:      1
 --------------------------

 Number of electrons:                                                       3474
 Number of occupied orbitals:                                               1737
 Number of molecular orbitals:                                              1737

 Number of orbital functions:                                               7524
 Number of independent orbital functions:                                   7524

 Extrapolation method: ASPC


 SCF WAVEFUNCTION OPTIMIZATION

  ----------------------------------- OT ---------------------------------------
  Minimizer      : DIIS                : direct inversion
                                         in the iterative subspace
                                         using   8 DIIS vectors
                                         safer DIIS on
  Preconditioner : FULL_KINETIC        : inversion of T + eS
  Precond_solver : DEFAULT
  stepsize       :    0.15000000                  energy_gap     :    0.00010000
  eps_taylor     :   0.10000E-15                  max_taylor     :             4
  ----------------------------------- OT ---------------------------------------

  Step     Update method      Time    Convergence         Total energy    Change
  ------------------------------------------------------------------------------
     1 OT DIIS     0.15E+00   17.7     0.00002927     -5927.7900415777 -5.93E+03
     2 OT DIIS     0.15E+00   18.1     0.00002091     -5927.7914197220 -1.38E-03
     3 OT DIIS     0.15E+00   18.2     0.00004558     -5927.7922188173 -7.99E-04
     4 OT DIIS     0.15E+00   18.3     0.00002397     -5927.7926422433 -4.23E-04
     5 OT DIIS     0.15E+00   18.3     0.00002372     -5927.7929485594 -3.06E-04
     6 OT DIIS     0.15E+00   18.4     0.00001869     -5927.7931914341 -2.43E-04
     7 OT DIIS     0.15E+00   18.4     0.00001174     -5927.7934337201 -2.42E-04
     8 OT DIIS     0.15E+00   18.9     0.00001444     -5927.7935374045 -1.04E-04
     9 OT DIIS     0.15E+00   19.0     0.00001101     -5927.7936312447 -9.38E-05
    10 OT DIIS     0.15E+00   19.1     0.00001073     -5927.7936786201 -4.74E-05
    11 OT DIIS     0.15E+00   19.0     0.00000571     -5927.7937291672 -5.05E-05
    12 OT DIIS     0.15E+00   19.1     0.00000551     -5927.7937739459 -4.48E-05
    13 OT DIIS     0.15E+00   19.1     0.00000536     -5927.7938052888 -3.13E-05
    14 OT DIIS     0.15E+00   19.1     0.00000499     -5927.7938287295 -2.34E-05
    15 OT DIIS     0.15E+00   18.8     0.00000474     -5927.7938520481 -2.33E-05
    16 OT DIIS     0.15E+00   18.8     0.00000435     -5927.7938686804 -1.66E-05
    17 OT DIIS     0.15E+00   18.7     0.00000402     -5927.7938848155 -1.61E-05
    18 OT DIIS     0.15E+00   18.6     0.00000398     -5927.7938962660 -1.15E-05
    19 OT DIIS     0.15E+00   18.4     0.00000354     -5927.7939098536 -1.36E-05
    20 OT DIIS     0.15E+00   18.5     0.00000309     -5927.7939211284 -1.13E-05
    21 OT DIIS     0.15E+00   18.5     0.00000259     -5927.7939305598 -9.43E-06
    22 OT DIIS     0.15E+00   18.7     0.00000269     -5927.7939395887 -9.03E-06
    23 OT DIIS     0.15E+00   18.6     0.00000273     -5927.7939468769 -7.29E-06
    24 OT DIIS     0.15E+00   18.7     0.00000267     -5927.7939518130 -4.94E-06
    25 OT DIIS     0.15E+00   18.7     0.00000274     -5927.7939573990 -5.59E-06
    26 OT DIIS     0.15E+00   18.7     0.00000239     -5927.7939624614 -5.06E-06
    27 OT DIIS     0.15E+00   18.7     0.00000254     -5927.7939678512 -5.39E-06
    28 OT DIIS     0.15E+00   18.7     0.00000243     -5927.7939707886 -2.94E-06
    29 OT DIIS     0.15E+00   18.7     0.00000237     -5927.7939740046 -3.22E-06
    30 OT DIIS     0.15E+00   18.5     0.00000194     -5927.7939779947 -3.99E-06

  Leaving inner SCF loop after reaching    30 steps.


  Electronic density on regular grids:      -3474.0000000008       -0.0000000008
  Core density on regular grids:             3473.9999999952       -0.0000000048
  Total charge density on r-space grids:       -0.0000000056
  Total charge density g-space grids:          -0.0000000047

  Overlap energy of the core charge distribution:               0.00000032666612
  Self energy of the core charge distribution:             -13965.50565932552126
  Core Hamiltonian energy:                                   3144.16135731436043
  Hartree energy:                                            6203.42753755395370
  Exchange-correlation energy:                              -1307.40414735451304
  Dispersion energy:                                           -2.47306650961343

  Total energy:                                             -5927.79397799466733

  outer SCF iter =    1 RMS gradient =   0.19E-05 energy =      -5927.7939779947

  ----------------------------------- OT ---------------------------------------
  Minimizer      : DIIS                : direct inversion
                                         in the iterative subspace
                                         using   8 DIIS vectors
                                         safer DIIS on
  Preconditioner : FULL_KINETIC        : inversion of T + eS
  Precond_solver : DEFAULT
  stepsize       :    0.15000000                  energy_gap     :    0.00010000
  eps_taylor     :   0.10000E-15                  max_taylor     :             4
  ----------------------------------- OT ---------------------------------------

  Step     Update method      Time    Convergence         Total energy    Change
  ------------------------------------------------------------------------------
     1 OT DIIS     0.15E+00   41.2     0.00000205     -5927.7939812943 -3.30E-06
     2 OT DIIS     0.15E+00   18.0     0.00000925     -5927.7939731434  8.15E-06
     3 OT DIIS     0.15E+00   18.0     0.00000200     -5927.7939849402 -1.18E-05
     4 OT DIIS     0.15E+00   18.2     0.00000141     -5927.7939858474 -9.07E-07
     5 OT DIIS     0.15E+00   18.0     0.00000126     -5927.7939872870 -1.44E-06
     6 OT DIIS     0.15E+00   18.1     0.00000211     -5927.7939953936 -8.11E-06
     7 OT DIIS     0.15E+00   18.3     0.00000150     -5927.7940093071 -1.39E-05
     8 OT DIIS     0.15E+00   18.6     0.00000122     -5927.7940134151 -4.11E-06
     9 OT DIIS     0.15E+00   18.7     0.00000094     -5927.7940156139 -2.20E-06

  *** SCF run converged in     9 steps ***


  Electronic density on regular grids:      -3473.9999999996        0.0000000004
  Core density on regular grids:             3473.9999999952       -0.0000000048
  Total charge density on r-space grids:       -0.0000000044
  Total charge density g-space grids:          -0.0000000035

  Overlap energy of the core charge distribution:               0.00000032666612
  Self energy of the core charge distribution:             -13965.50565932552126
  Core Hamiltonian energy:                                   3144.16066292881032
  Hartree energy:                                            6203.42807665875353
  Exchange-correlation energy:                              -1307.40402969303386
  Dispersion energy:                                           -2.47306650961343

  Total energy:                                             -5927.79401561393843

  outer SCF iter =    2 RMS gradient =   0.94E-06 energy =      -5927.7940156139
  outer SCF loop converged in   2 iterations or   39 steps


 ENERGY| Total FORCE_EVAL ( QS ) energy (a.u.):            -5927.794018616927133


 --------  Informations at step =     1 ------------
  Optimization Method        =                 BFGS
  Total Energy               =     -5927.7940186169
  Real energy change         =        -0.0073074461
  Predicted change in energy =        -0.0045430955
  Scaling factor             =         0.0000000000
  Step size                  =         0.1157755272
  Trust radius               =         0.4724315332
  Decrease in energy         =                  YES
  Used time                  =              759.579

  Convergence check :
  Max. step size             =         0.1157755272
  Conv. limit for step size  =         0.0030000000
  Convergence in step size   =                   NO
  RMS step size              =         0.0064200288
  Conv. limit for RMS step   =         0.0015000000
  Convergence in RMS step    =                   NO
  Max. gradient              =         0.0129453560
  Conv. limit for gradients  =         0.0004500000
  Conv. for gradients        =                   NO
  RMS gradient               =         0.0005765790
  Conv. limit for RMS grad.  =         0.0003000000
  Conv. for gradients        =                   NO
 ---------------------------------------------------

 --------------------------
 OPTIMIZATION STEP:      2
 --------------------------

 Number of electrons:                                                       3474
 Number of occupied orbitals:                                               1737
 Number of molecular orbitals:                                              1737

 Number of orbital functions:                                               7524
 Number of independent orbital functions:                                   7524

 Extrapolation method: ASPC


 SCF WAVEFUNCTION OPTIMIZATION

  ----------------------------------- OT ---------------------------------------
  Minimizer      : DIIS                : direct inversion
                                         in the iterative subspace
                                         using   8 DIIS vectors
                                         safer DIIS on
  Preconditioner : FULL_KINETIC        : inversion of T + eS
  Precond_solver : DEFAULT
  stepsize       :    0.15000000                  energy_gap     :    0.00010000
  eps_taylor     :   0.10000E-15                  max_taylor     :             4
  ----------------------------------- OT ---------------------------------------

  Step     Update method      Time    Convergence         Total energy    Change
  ------------------------------------------------------------------------------
     1 OT DIIS     0.15E+00   17.7     0.00003283     -5927.7967144565 -5.93E+03
     2 OT DIIS     0.15E+00   18.2     0.00002375     -5927.7984498199 -1.74E-03
     3 OT DIIS     0.15E+00   18.3     0.00005761     -5927.7993587553 -9.09E-04
     4 OT DIIS     0.15E+00   18.4     0.00002505     -5927.8000162187 -6.57E-04
     5 OT DIIS     0.15E+00   18.5     0.00003042     -5927.8003975785 -3.81E-04
     6 OT DIIS     0.15E+00   18.5     0.00001835     -5927.8007898098 -3.92E-04
     7 OT DIIS     0.15E+00   18.7     0.00001671     -5927.8010950094 -3.05E-04
     8 OT DIIS     0.15E+00   19.0     0.00001767     -5927.8012263521 -1.31E-04
     9 OT DIIS     0.15E+00   19.1     0.00001172     -5927.8013822628 -1.56E-04
    10 OT DIIS     0.15E+00   19.1     0.00001195     -5927.8014545833 -7.23E-05
    11 OT DIIS     0.15E+00   19.1     0.00000679     -5927.8015265088 -7.19E-05
    12 OT DIIS     0.15E+00   19.1     0.00000743     -5927.8015947748 -6.83E-05
    13 OT DIIS     0.15E+00   19.1     0.00000705     -5927.8016356362 -4.09E-05
    14 OT DIIS     0.15E+00   19.1     0.00000581     -5927.8016772396 -4.16E-05
    15 OT DIIS     0.15E+00   18.8     0.00000603     -5927.8017157454 -3.85E-05
    16 OT DIIS     0.15E+00   18.7     0.00000551     -5927.8017451237 -2.94E-05
    17 OT DIIS     0.15E+00   18.8     0.00000543     -5927.8017710936 -2.60E-05
    18 OT DIIS     0.15E+00   18.6     0.00000543     -5927.8017915729 -2.05E-05
    19 OT DIIS     0.15E+00   18.5     0.00000442     -5927.8018154578 -2.39E-05
    20 OT DIIS     0.15E+00   18.6     0.00000385     -5927.8018387960 -2.33E-05
    21 OT DIIS     0.15E+00   18.5     0.00000353     -5927.8018554363 -1.66E-05
    22 OT DIIS     0.15E+00   18.6     0.00000396     -5927.8018726771 -1.72E-05
    23 OT DIIS     0.15E+00   18.6     0.00000402     -5927.8018836335 -1.10E-05
    24 OT DIIS     0.15E+00   18.6     0.00000355     -5927.8018945234 -1.09E-05
    25 OT DIIS     0.15E+00   18.6     0.00000393     -5927.8019035424 -9.02E-06
    26 OT DIIS     0.15E+00   18.5     0.00000364     -5927.8019126454 -9.10E-06
    27 OT DIIS     0.15E+00   18.4     0.00000363     -5927.8019220095 -9.36E-06
    28 OT DIIS     0.15E+00   18.4     0.00000365     -5927.8019247074 -2.70E-06
    29 OT DIIS     0.15E+00   18.4     0.00000294     -5927.8019322752 -7.57E-06
    30 OT DIIS     0.15E+00   18.4     0.00000274     -5927.8019374710 -5.20E-06

  Leaving inner SCF loop after reaching    30 steps.


  Electronic density on regular grids:      -3474.0000000027       -0.0000000027
  Core density on regular grids:             3473.9999999952       -0.0000000048
  Total charge density on r-space grids:       -0.0000000075
  Total charge density g-space grids:          -0.0000000065

  Overlap energy of the core charge distribution:               0.00000032652156
  Self energy of the core charge distribution:             -13965.50565932552126
  Core Hamiltonian energy:                                   3144.04964250624562
  Hartree energy:                                            6203.50011298872414
  Exchange-correlation energy:                              -1307.37407308342836
  Dispersion energy:                                           -2.47196088356730

  Total energy:                                             -5927.80193747102749

  outer SCF iter =    1 RMS gradient =   0.27E-05 energy =      -5927.8019374710

  ----------------------------------- OT ---------------------------------------
  Minimizer      : DIIS                : direct inversion
                                         in the iterative subspace
                                         using   8 DIIS vectors
                                         safer DIIS on
  Preconditioner : FULL_KINETIC        : inversion of T + eS
  Precond_solver : DEFAULT
  stepsize       :    0.15000000                  energy_gap     :    0.00010000
  eps_taylor     :   0.10000E-15                  max_taylor     :             4
  ----------------------------------- OT ---------------------------------------

  Step     Update method      Time    Convergence         Total energy    Change
  ------------------------------------------------------------------------------
     1 OT DIIS     0.15E+00   41.0     0.00000296     -5927.8019420309 -4.56E-06
     2 OT DIIS     0.15E+00   17.9     0.00001521     -5927.8019188977  2.31E-05
     3 OT DIIS     0.15E+00   17.9     0.00000275     -5927.8019484880 -2.96E-05
     4 OT DIIS     0.15E+00   17.9     0.00000189     -5927.8019502888 -1.80E-06
     5 OT DIIS     0.15E+00   17.9     0.00000168     -5927.8019525284 -2.24E-06
     6 OT DIIS     0.15E+00   18.0     0.00000264     -5927.8019699843 -1.75E-05
     7 OT DIIS     0.15E+00   18.1     0.00000236     -5927.8019903210 -2.03E-05
     8 OT DIIS     0.15E+00   18.5     0.00000146     -5927.8020009151 -1.06E-05
     9 OT DIIS     0.15E+00   18.8     0.00000128     -5927.8020039177 -3.00E-06
    10 OT DIIS     0.15E+00   19.0     0.00000132     -5927.8020080051 -4.09E-06
    11 OT DIIS     0.15E+00   18.9     0.00000123     -5927.8020113651 -3.36E-06
    12 OT DIIS     0.15E+00   18.6     0.00000136     -5927.8020142123 -2.85E-06
    13 OT DIIS     0.15E+00   18.6     0.00000149     -5927.8020304088 -1.62E-05
    14 OT DIIS     0.15E+00   18.6     0.00000143     -5927.8020426180 -1.22E-05
    15 OT DIIS     0.15E+00   18.5     0.00000103     -5927.8020500417 -7.42E-06
    16 OT DIIS     0.15E+00   18.5     0.00000126     -5927.8020541896 -4.15E-06
    17 OT DIIS     0.15E+00   18.6     0.00000140     -5927.8020555716 -1.38E-06
    18 OT DIIS     0.15E+00   18.5     0.00000107     -5927.8020586335 -3.06E-06
    19 OT DIIS     0.15E+00   18.5     0.00000091     -5927.8020613064 -2.67E-06

  *** SCF run converged in    19 steps ***


  Electronic density on regular grids:      -3474.0000000010       -0.0000000010
  Core density on regular grids:             3473.9999999952       -0.0000000048
  Total charge density on r-space grids:       -0.0000000058
  Total charge density g-space grids:          -0.0000000048

  Overlap energy of the core charge distribution:               0.00000032652156
  Self energy of the core charge distribution:             -13965.50565932552126
  Core Hamiltonian energy:                                   3144.04731791205631
  Hartree energy:                                            6203.50166653002634
  Exchange-correlation energy:                              -1307.37342586596219
  Dispersion energy:                                           -2.47196088356730

  Total energy:                                             -5927.80206130644729

  outer SCF iter =    2 RMS gradient =   0.91E-06 energy =      -5927.8020613064
  outer SCF loop converged in   2 iterations or   49 steps


 ENERGY| Total FORCE_EVAL ( QS ) energy (a.u.):            -5927.802067275733862


 --------  Informations at step =     2 ------------
  Optimization Method        =                 BFGS
  Total Energy               =     -5927.8020672757
  Real energy change         =        -0.0080486588
  Predicted change in energy =        -0.0060225426
  Scaling factor             =         0.0000000000
  Step size                  =         0.2708114942
  Trust radius               =         0.4724315332
  Decrease in energy         =                  YES
  Used time                  =              948.655

  Convergence check :
  Max. step size             =         0.2708114942
  Conv. limit for step size  =         0.0030000000
  Convergence in step size   =                   NO
  RMS step size              =         0.0134912964
  Conv. limit for RMS step   =         0.0015000000
  Convergence in RMS step    =                   NO
  Max. gradient              =         0.0093682830
  Conv. limit for gradients  =         0.0004500000
  Conv. for gradients        =                   NO
  RMS gradient               =         0.0005888666
  Conv. limit for RMS grad.  =         0.0003000000
  Conv. for gradients        =                   NO
 ---------------------------------------------------

 --------------------------
 OPTIMIZATION STEP:      3
 --------------------------

 Number of electrons:                                                       3474
 Number of occupied orbitals:                                               1737
 Number of molecular orbitals:                                              1737

 Number of orbital functions:                                               7524
 Number of independent orbital functions:                                   7524

 Extrapolation method: ASPC


 SCF WAVEFUNCTION OPTIMIZATION

  ----------------------------------- OT ---------------------------------------
  Minimizer      : DIIS                : direct inversion
                                         in the iterative subspace
                                         using   8 DIIS vectors
                                         safer DIIS on
  Preconditioner : FULL_KINETIC        : inversion of T + eS
  Precond_solver : DEFAULT
  stepsize       :    0.15000000                  energy_gap     :    0.00010000
  eps_taylor     :   0.10000E-15                  max_taylor     :             4
  ----------------------------------- OT ---------------------------------------

  Step     Update method      Time    Convergence         Total energy    Change
  ------------------------------------------------------------------------------
     1 OT DIIS     0.15E+00   17.7     0.00004020     -5927.8003234386 -5.93E+03
     2 OT DIIS     0.15E+00   18.1     0.00002817     -5927.8027511711 -2.43E-03
     3 OT DIIS     0.15E+00   18.3     0.00007820     -5927.8031874287 -4.36E-04
     4 OT DIIS     0.15E+00   18.2     0.00002984     -5927.8043307635 -1.14E-03
     5 OT DIIS     0.15E+00   18.4     0.00004031     -5927.8046778195 -3.47E-04
     6 OT DIIS     0.15E+00   18.3     0.00002419     -5927.8051146663 -4.37E-04
     7 OT DIIS     0.15E+00   18.6     0.00001698     -5927.8055037775 -3.89E-04
     8 OT DIIS     0.15E+00   18.8     0.00002078     -5927.8056522160 -1.48E-04
     9 OT DIIS     0.15E+00   18.9     0.00001380     -5927.8058179752 -1.66E-04
    10 OT DIIS     0.15E+00   18.9     0.00001266     -5927.8059074893 -8.95E-05
    11 OT DIIS     0.15E+00   18.9     0.00000909     -5927.8059800927 -7.26E-05
    12 OT DIIS     0.15E+00   19.0     0.00000668     -5927.8060445692 -6.45E-05
    13 OT DIIS     0.15E+00   18.7     0.00000669     -5927.8060982853 -5.37E-05
    14 OT DIIS     0.15E+00   18.7     0.00000729     -5927.8061226167 -2.43E-05
    15 OT DIIS     0.15E+00   18.6     0.00000657     -5927.8061529432 -3.03E-05
    16 OT DIIS     0.15E+00   18.6     0.00000592     -5927.8061714925 -1.85E-05
    17 OT DIIS     0.15E+00   18.6     0.00000510     -5927.8061948167 -2.33E-05
    18 OT DIIS     0.15E+00   18.6     0.00000572     -5927.8062061177 -1.13E-05
    19 OT DIIS     0.15E+00   18.6     0.00000403     -5927.8062265578 -2.04E-05
    20 OT DIIS     0.15E+00   18.4     0.00000439     -5927.8062392254 -1.27E-05
    21 OT DIIS     0.15E+00   18.4     0.00000339     -5927.8062512961 -1.21E-05
    22 OT DIIS     0.15E+00   18.4     0.00000340     -5927.8062600693 -8.77E-06
    23 OT DIIS     0.15E+00   18.4     0.00000436     -5927.8062675420 -7.47E-06
    24 OT DIIS     0.15E+00   18.4     0.00000371     -5927.8062733873 -5.85E-06
    25 OT DIIS     0.15E+00   18.4     0.00000382     -5927.8062788747 -5.49E-06
    26 OT DIIS     0.15E+00   18.5     0.00000323     -5927.8062824241 -3.55E-06
    27 OT DIIS     0.15E+00   18.5     0.00000373     -5927.8062878908 -5.47E-06
    28 OT DIIS     0.15E+00   18.4     0.00000285     -5927.8062893430 -1.45E-06
    29 OT DIIS     0.15E+00   18.3     0.00000280     -5927.8062943444 -5.00E-06
    30 OT DIIS     0.15E+00   18.4     0.00000234     -5927.8062949413 -5.97E-07

  Leaving inner SCF loop after reaching    30 steps.


  Electronic density on regular grids:      -3474.0000000016       -0.0000000016
  Core density on regular grids:             3473.9999999952       -0.0000000048
  Total charge density on r-space grids:       -0.0000000064
  Total charge density g-space grids:          -0.0000000054

  Overlap energy of the core charge distribution:               0.00000032629437
  Self energy of the core charge distribution:             -13965.50565932552126
  Core Hamiltonian energy:                                   3143.95429512451938
  Hartree energy:                                            6203.56507475403305
  Exchange-correlation energy:                              -1307.34922279887678
  Dispersion energy:                                           -2.47078302173208

  Total energy:                                             -5927.80629494128516

  outer SCF iter =    1 RMS gradient =   0.23E-05 energy =      -5927.8062949413

  ----------------------------------- OT ---------------------------------------
  Minimizer      : DIIS                : direct inversion
                                         in the iterative subspace
                                         using   8 DIIS vectors
                                         safer DIIS on
  Preconditioner : FULL_KINETIC        : inversion of T + eS
  Precond_solver : DEFAULT
  stepsize       :    0.15000000                  energy_gap     :    0.00010000
  eps_taylor     :   0.10000E-15                  max_taylor     :             4
  ----------------------------------- OT ---------------------------------------

  Step     Update method      Time    Convergence         Total energy    Change
  ------------------------------------------------------------------------------
     1 OT DIIS     0.15E+00   41.1     0.00000215     -5927.8062988479 -3.91E-06
     2 OT DIIS     0.15E+00   17.9     0.00000873     -5927.8062925555  6.29E-06
     3 OT DIIS     0.15E+00   17.9     0.00000204     -5927.8063035308 -1.10E-05
     4 OT DIIS     0.15E+00   17.9     0.00000168     -5927.8063047344 -1.20E-06
     5 OT DIIS     0.15E+00   17.9     0.00000144     -5927.8063061951 -1.46E-06
     6 OT DIIS     0.15E+00   18.0     0.00000192     -5927.8063181859 -1.20E-05
     7 OT DIIS     0.15E+00   18.0     0.00000223     -5927.8063338576 -1.57E-05
     8 OT DIIS     0.15E+00   18.2     0.00000122     -5927.8063406821 -6.82E-06
     9 OT DIIS     0.15E+00   18.3     0.00000104     -5927.8063430925 -2.41E-06
    10 OT DIIS     0.15E+00   18.4     0.00000118     -5927.8063462915 -3.20E-06
    11 OT DIIS     0.15E+00   18.5     0.00000093     -5927.8063485887 -2.30E-06

  *** SCF run converged in    11 steps ***


  Electronic density on regular grids:      -3474.0000000012       -0.0000000012
  Core density on regular grids:             3473.9999999952       -0.0000000048
  Total charge density on r-space grids:       -0.0000000060
  Total charge density g-space grids:          -0.0000000050

  Overlap energy of the core charge distribution:               0.00000032629437
  Self energy of the core charge distribution:             -13965.50565932552126
  Core Hamiltonian energy:                                   3143.95420941639031
  Hartree energy:                                            6203.56506639058989
  Exchange-correlation energy:                              -1307.34918237472993
  Dispersion energy:                                           -2.47078302173208

  Total energy:                                             -5927.80634858870872

  outer SCF iter =    2 RMS gradient =   0.93E-06 energy =      -5927.8063485887
  outer SCF loop converged in   2 iterations or   41 steps


 ENERGY| Total FORCE_EVAL ( QS ) energy (a.u.):            -5927.806351950773205


 --------  Informations at step =     3 ------------
  Optimization Method        =                 BFGS
  Total Energy               =     -5927.8063519508
  Real energy change         =        -0.0042846750
  Predicted change in energy =        -0.0029191699
  Scaling factor             =         0.0000000000
  Step size                  =         0.2165420748
  Trust radius               =         0.4724315332
  Decrease in energy         =                  YES
  Used time                  =              794.912

  Convergence check :
  Max. step size             =         0.2165420748
  Conv. limit for step size  =         0.0030000000
  Convergence in step size   =                   NO
  RMS step size              =         0.0108337867
  Conv. limit for RMS step   =         0.0015000000
  Convergence in RMS step    =                   NO
  Max. gradient              =         0.0107157566
  Conv. limit for gradients  =         0.0004500000
  Conv. for gradients        =                   NO
  RMS gradient               =         0.0006995076
  Conv. limit for RMS grad.  =         0.0003000000
  Conv. for gradients        =                   NO
 ---------------------------------------------------

 --------------------------
 OPTIMIZATION STEP:      4
 --------------------------

 Number of electrons:                                                       3474
 Number of occupied orbitals:                                               1737
 Number of molecular orbitals:                                              1737

 Number of orbital functions:                                               7524
 Number of independent orbital functions:                                   7524

 Extrapolation method: ASPC


 SCF WAVEFUNCTION OPTIMIZATION

  ----------------------------------- OT ---------------------------------------
  Minimizer      : DIIS                : direct inversion
                                         in the iterative subspace
                                         using   8 DIIS vectors
                                         safer DIIS on
  Preconditioner : FULL_KINETIC        : inversion of T + eS
  Precond_solver : DEFAULT
  stepsize       :    0.15000000                  energy_gap     :    0.00010000
  eps_taylor     :   0.10000E-15                  max_taylor     :             4
  ----------------------------------- OT ---------------------------------------

  Step     Update method      Time    Convergence         Total energy    Change
  ------------------------------------------------------------------------------
     1 OT DIIS     0.15E+00   17.7     0.00003468     -5927.8055782057 -5.93E+03
     2 OT DIIS     0.15E+00   18.1     0.00003775     -5927.8073343289 -1.76E-03
     3 OT DIIS     0.15E+00   18.1     0.00007404     -5927.8072643169  7.00E-05
     4 OT DIIS     0.15E+00   18.2     0.00003269     -5927.8087311657 -1.47E-03
     5 OT DIIS     0.15E+00   18.3     0.00003163     -5927.8090497633 -3.19E-04
     6 OT DIIS     0.15E+00   18.4     0.00001992     -5927.8094776153 -4.28E-04
     7 OT DIIS     0.15E+00   18.5     0.00002774     -5927.8096942411 -2.17E-04
     8 OT DIIS     0.15E+00   18.6     0.00001360     -5927.8099426759 -2.48E-04
     9 OT DIIS     0.15E+00   18.7     0.00001296     -5927.8101082065 -1.66E-04
    10 OT DIIS     0.15E+00   18.8     0.00001359     -5927.8101613133 -5.31E-05
    11 OT DIIS     0.15E+00   18.6     0.00000732     -5927.8102734095 -1.12E-04
    12 OT DIIS     0.15E+00   18.6     0.00000975     -5927.8103179685 -4.46E-05
    13 OT DIIS     0.15E+00   18.6     0.00000641     -5927.8103657645 -4.78E-05
    14 OT DIIS     0.15E+00   18.6     0.00000722     -5927.8103990378 -3.33E-05
    15 OT DIIS     0.15E+00   18.5     0.00000628     -5927.8104261701 -2.71E-05
    16 OT DIIS     0.15E+00   18.5     0.00000600     -5927.8104506437 -2.45E-05
    17 OT DIIS     0.15E+00   18.5     0.00000621     -5927.8104706872 -2.00E-05
    18 OT DIIS     0.15E+00   18.5     0.00000483     -5927.8104889517 -1.83E-05
    19 OT DIIS     0.15E+00   18.5     0.00000395     -5927.8105121072 -2.32E-05
    20 OT DIIS     0.15E+00   18.5     0.00000441     -5927.8105251141 -1.30E-05
    21 OT DIIS     0.15E+00   18.4     0.00000416     -5927.8105393008 -1.42E-05
    22 OT DIIS     0.15E+00   18.5     0.00000434     -5927.8105464643 -7.16E-06
    23 OT DIIS     0.15E+00   18.5     0.00000422     -5927.8105552938 -8.83E-06
    24 OT DIIS     0.15E+00   18.5     0.00000438     -5927.8105620880 -6.79E-06
    25 OT DIIS     0.15E+00   18.5     0.00000401     -5927.8105688284 -6.74E-06
    26 OT DIIS     0.15E+00   18.5     0.00000422     -5927.8105744828 -5.65E-06
    27 OT DIIS     0.15E+00   18.7     0.00000349     -5927.8105787968 -4.31E-06
    28 OT DIIS     0.15E+00   18.6     0.00000299     -5927.8105789573 -1.61E-07
    29 OT DIIS     0.15E+00   18.5     0.00000278     -5927.8105880616 -9.10E-06
    30 OT DIIS     0.15E+00   18.7     0.00000282     -5927.8105879190  1.43E-07

  Leaving inner SCF loop after reaching    30 steps.


  Electronic density on regular grids:      -3474.0000000020       -0.0000000020
  Core density on regular grids:             3473.9999999952       -0.0000000048
  Total charge density on r-space grids:       -0.0000000068
  Total charge density g-space grids:          -0.0000000058

  Overlap energy of the core charge distribution:               0.00000032581396
  Self energy of the core charge distribution:             -13965.50565932552126
  Core Hamiltonian energy:                                   3143.85539306610553
  Hartree energy:                                            6203.63601376160659
  Exchange-correlation energy:                              -1307.32763118466573
  Dispersion energy:                                           -2.46870456237377

  Total energy:                                             -5927.81058791903524

  outer SCF iter =    1 RMS gradient =   0.28E-05 energy =      -5927.8105879190

  ----------------------------------- OT ---------------------------------------
  Minimizer      : DIIS                : direct inversion
                                         in the iterative subspace
                                         using   8 DIIS vectors
                                         safer DIIS on
  Preconditioner : FULL_KINETIC        : inversion of T + eS
  Precond_solver : DEFAULT
  stepsize       :    0.15000000                  energy_gap     :    0.00010000
  eps_taylor     :   0.10000E-15                  max_taylor     :             4
  ----------------------------------- OT ---------------------------------------

  Step     Update method      Time    Convergence         Total energy    Change
  ------------------------------------------------------------------------------
     1 OT DIIS     0.15E+00   41.3     0.00000279     -5927.8105905381 -2.62E-06
     2 OT DIIS     0.15E+00   17.8     0.00001493     -5927.8105693341  2.12E-05
     3 OT DIIS     0.15E+00   17.9     0.00000222     -5927.8105970248 -2.77E-05
     4 OT DIIS     0.15E+00   18.0     0.00000179     -5927.8105985387 -1.51E-06
     5 OT DIIS     0.15E+00   18.0     0.00000172     -5927.8106012860 -2.75E-06
     6 OT DIIS     0.15E+00   18.0     0.00000251     -5927.8106249418 -2.37E-05
     7 OT DIIS     0.15E+00   18.1     0.00000200     -5927.8106418152 -1.69E-05
     8 OT DIIS     0.15E+00   18.4     0.00000137     -5927.8106496547 -7.84E-06
     9 OT DIIS     0.15E+00   18.5     0.00000136     -5927.8106522172 -2.56E-06
    10 OT DIIS     0.15E+00   18.6     0.00000124     -5927.8106582132 -6.00E-06
    11 OT DIIS     0.15E+00   18.5     0.00000134     -5927.8106613890 -3.18E-06
    12 OT DIIS     0.15E+00   18.6     0.00000171     -5927.8106695577 -8.17E-06
    13 OT DIIS     0.15E+00   18.6     0.00000168     -5927.8106895784 -2.00E-05
    14 OT DIIS     0.15E+00   18.6     0.00000144     -5927.8106950814 -5.50E-06
    15 OT DIIS     0.15E+00   18.5     0.00000108     -5927.8107030307 -7.95E-06
    16 OT DIIS     0.15E+00   18.4     0.00000146     -5927.8107048067 -1.78E-06
    17 OT DIIS     0.15E+00   18.4     0.00000133     -5927.8107065808 -1.77E-06
    18 OT DIIS     0.15E+00   18.4     0.00000101     -5927.8107097785 -3.20E-06
    19 OT DIIS     0.15E+00   18.4     0.00000106     -5927.8107102174 -4.39E-07
    20 OT DIIS     0.15E+00   18.4     0.00000107     -5927.8107144070 -4.19E-06
    21 OT DIIS     0.15E+00   18.4     0.00000109     -5927.8107198201 -5.41E-06
    22 OT DIIS     0.15E+00   18.4     0.00000112     -5927.8107206647 -8.45E-07
    23 OT DIIS     0.15E+00   18.4     0.00000156     -5927.8107215346 -8.70E-07
    24 OT DIIS     0.15E+00   18.4     0.00000105     -5927.8107217467 -2.12E-07
    25 OT DIIS     0.15E+00   18.3     0.00000113     -5927.8107255481 -3.80E-06
    26 OT SD       0.15E+00   18.3     0.00000111     -5927.8107266495 -1.10E-06
    27 OT DIIS     0.15E+00   18.3     0.00000648     -5927.8107224717  4.18E-06
    28 OT DIIS     0.15E+00   18.3     0.00000097     -5927.8107292267 -6.76E-06

  *** SCF run converged in    28 steps ***


  Electronic density on regular grids:      -3474.0000000015       -0.0000000015
  Core density on regular grids:             3473.9999999952       -0.0000000048
  Total charge density on r-space grids:       -0.0000000063
  Total charge density g-space grids:          -0.0000000053

  Overlap energy of the core charge distribution:               0.00000032581396
  Self energy of the core charge distribution:             -13965.50565932552126
  Core Hamiltonian energy:                                   3143.85459835923939
  Hartree energy:                                            6203.63661663580388
  Exchange-correlation energy:                              -1307.32758065969620
  Dispersion energy:                                           -2.46870456237377

  Total energy:                                             -5927.81072922673411

  outer SCF iter =    2 RMS gradient =   0.97E-06 energy =      -5927.8107292267
  outer SCF loop converged in   2 iterations or   58 steps


 ENERGY| Total FORCE_EVAL ( QS ) energy (a.u.):            -5927.810730156552381


 --------  Informations at step =     4 ------------
  Optimization Method        =                 BFGS
  Total Energy               =     -5927.8107301566
  Real energy change         =        -0.0043782058
  Predicted change in energy =        -0.0045022015
  Scaling factor             =         0.0000000000
  Step size                  =         0.3422559629
  Trust radius               =         0.4724315332
  Decrease in energy         =                  YES
  Used time                  =             1109.094

  Convergence check :
  Max. step size             =         0.3422559629
  Conv. limit for step size  =         0.0030000000
  Convergence in step size   =                   NO
  RMS step size              =         0.0176330573
  Conv. limit for RMS step   =         0.0015000000
  Convergence in RMS step    =                   NO
  Max. gradient              =         0.0151464842
  Conv. limit for gradients  =         0.0004500000
  Conv. for gradients        =                   NO
  RMS gradient               =         0.0008393906
  Conv. limit for RMS grad.  =         0.0003000000
  Conv. for gradients        =                   NO
 ---------------------------------------------------

 --------------------------
 OPTIMIZATION STEP:      5
 --------------------------

 Number of electrons:                                                       3474
 Number of occupied orbitals:                                               1737
 Number of molecular orbitals:                                              1737

 Number of orbital functions:                                               7524
 Number of independent orbital functions:                                   7524

 Extrapolation method: ASPC


 SCF WAVEFUNCTION OPTIMIZATION

  ----------------------------------- OT ---------------------------------------
  Minimizer      : DIIS                : direct inversion
                                         in the iterative subspace
                                         using   8 DIIS vectors
                                         safer DIIS on
  Preconditioner : FULL_KINETIC        : inversion of T + eS
  Precond_solver : DEFAULT
  stepsize       :    0.15000000                  energy_gap     :    0.00010000
  eps_taylor     :   0.10000E-15                  max_taylor     :             4
  ----------------------------------- OT ---------------------------------------

  Step     Update method      Time    Convergence         Total energy    Change
  ------------------------------------------------------------------------------
     1 OT DIIS     0.15E+00   17.8     0.00008137     -5927.7880078584 -5.93E+03
     2 OT DIIS     0.15E+00   18.6     0.00006362     -5927.7982850990 -1.03E-02
     3 OT DIIS     0.15E+00   18.6     0.00020284     -5927.7985544005 -2.69E-04
     4 OT DIIS     0.15E+00   18.6     0.00005784     -5927.8064079287 -7.85E-03
     5 OT DIIS     0.15E+00   18.6     0.00009927     -5927.8076961615 -1.29E-03
     6 OT DIIS     0.15E+00   18.7     0.00003715     -5927.8107036446 -3.01E-03
     7 OT DIIS     0.15E+00   18.6     0.00004977     -5927.8121414451 -1.44E-03
     8 OT DIIS     0.15E+00   18.7     0.00003573     -5927.8130226802 -8.81E-04
     9 OT DIIS     0.15E+00   18.3     0.00003442     -5927.8137887331 -7.66E-04
    10 OT DIIS     0.15E+00   18.3     0.00003303     -5927.8140442012 -2.55E-04
    11 OT DIIS     0.15E+00   18.4     0.00001945     -5927.8144834961 -4.39E-04
    12 OT DIIS     0.15E+00   18.5     0.00002109     -5927.8147089671 -2.25E-04
    13 OT DIIS     0.15E+00   18.6     0.00001689     -5927.8149201478 -2.11E-04
    14 OT DIIS     0.15E+00   18.3     0.00001840     -5927.8150349955 -1.15E-04
    15 OT DIIS     0.15E+00   18.3     0.00001704     -5927.8151407097 -1.06E-04
    16 OT DIIS     0.15E+00   18.3     0.00001444     -5927.8152270629 -8.64E-05
    17 OT DIIS     0.15E+00   18.2     0.00001573     -5927.8153113038 -8.42E-05
    18 OT DIIS     0.15E+00   18.2     0.00001213     -5927.8153707550 -5.95E-05
    19 OT DIIS     0.15E+00   18.3     0.00001406     -5927.8154489657 -7.82E-05
    20 OT DIIS     0.15E+00   18.3     0.00001149     -5927.8154741129 -2.51E-05
    21 OT DIIS     0.15E+00   18.1     0.00001179     -5927.8155209253 -4.68E-05
    22 OT DIIS     0.15E+00   18.3     0.00001098     -5927.8155286379 -7.71E-06
    23 OT DIIS     0.15E+00   18.3     0.00001176     -5927.8155437705 -1.51E-05
    24 OT DIIS     0.15E+00   18.3     0.00000993     -5927.8155717599 -2.80E-05
    25 OT DIIS     0.15E+00   18.3     0.00000842     -5927.8155829535 -1.12E-05
    26 OT DIIS     0.15E+00   18.3     0.00000784     -5927.8155963427 -1.34E-05
    27 OT DIIS     0.15E+00   18.3     0.00000633     -5927.8156047182 -8.38E-06
    28 OT DIIS     0.15E+00   18.3     0.00000608     -5927.8156226803 -1.80E-05
    29 OT DIIS     0.15E+00   18.3     0.00000547     -5927.8156345541 -1.19E-05
    30 OT DIIS     0.15E+00   18.3     0.00000572     -5927.8156497600 -1.52E-05

  Leaving inner SCF loop after reaching    30 steps.


  Electronic density on regular grids:      -3474.0000000452       -0.0000000452
  Core density on regular grids:             3473.9999999952       -0.0000000048
  Total charge density on r-space grids:       -0.0000000500
  Total charge density g-space grids:          -0.0000000490

  Overlap energy of the core charge distribution:               0.00000032573957
  Self energy of the core charge distribution:             -13965.50565932552126
  Core Hamiltonian energy:                                   3143.89061334138069
  Hartree energy:                                            6203.61467813905801
  Exchange-correlation energy:                              -1307.34717560055037
  Dispersion energy:                                           -2.46810664006197

  Total energy:                                             -5927.81564975995570

  outer SCF iter =    1 RMS gradient =   0.57E-05 energy =      -5927.8156497600

  ----------------------------------- OT ---------------------------------------
  Minimizer      : DIIS                : direct inversion
                                         in the iterative subspace
                                         using   8 DIIS vectors
                                         safer DIIS on
  Preconditioner : FULL_KINETIC        : inversion of T + eS
  Precond_solver : DEFAULT
  stepsize       :    0.15000000                  energy_gap     :    0.00010000
  eps_taylor     :   0.10000E-15                  max_taylor     :             4
  ----------------------------------- OT ---------------------------------------

  Step     Update method      Time    Convergence         Total energy    Change
  ------------------------------------------------------------------------------
     1 OT DIIS     0.15E+00   41.1     0.00000591     -5927.8156571731 -7.41E-06
     2 OT DIIS     0.15E+00   18.2     0.00003315     -5927.8155453616  1.12E-04
     3 OT DIIS     0.15E+00   18.0     0.00000528     -5927.8156790686 -1.34E-04
     4 OT DIIS     0.15E+00   18.0     0.00000356     -5927.8156858838 -6.82E-06
     5 OT DIIS     0.15E+00   18.0     0.00000343     -5927.8156928677 -6.98E-06
     6 OT DIIS     0.15E+00   18.1     0.00000640     -5927.8157350439 -4.22E-05
     7 OT DIIS     0.15E+00   18.2     0.00000407     -5927.8157889045 -5.39E-05
     8 OT DIIS     0.15E+00   18.2     0.00000226     -5927.8158127295 -2.38E-05
     9 OT DIIS     0.15E+00   18.3     0.00000191     -5927.8158171525 -4.42E-06
    10 OT DIIS     0.15E+00   18.3     0.00000174     -5927.8158238031 -6.65E-06
    11 OT DIIS     0.15E+00   18.2     0.00000150     -5927.8158276200 -3.82E-06
    12 OT DIIS     0.15E+00   18.3     0.00000232     -5927.8158320946 -4.47E-06
    13 OT DIIS     0.15E+00   18.3     0.00000184     -5927.8158425594 -1.05E-05
    14 OT DIIS     0.15E+00   18.3     0.00000197     -5927.8158465102 -3.95E-06
    15 OT DIIS     0.15E+00   18.3     0.00000120     -5927.8158503335 -3.82E-06
    16 OT DIIS     0.15E+00   18.3     0.00000130     -5927.8158518314 -1.50E-06
    17 OT DIIS     0.15E+00   18.3     0.00000154     -5927.8158525813 -7.50E-07
    18 OT DIIS     0.15E+00   18.3     0.00000106     -5927.8158539855 -1.40E-06
    19 OT DIIS     0.15E+00   18.2     0.00000100     -5927.8158549557 -9.70E-07
    20 OT DIIS     0.15E+00   18.2     0.00000102     -5927.8158575737 -2.62E-06
    21 OT DIIS     0.15E+00   18.2     0.00000085     -5927.8158607023 -3.13E-06

  *** SCF run converged in    21 steps ***


  Electronic density on regular grids:      -3474.0000000007       -0.0000000007
  Core density on regular grids:             3473.9999999952       -0.0000000048
  Total charge density on r-space grids:       -0.0000000055
  Total charge density g-space grids:          -0.0000000046

  Overlap energy of the core charge distribution:               0.00000032573957
  Self energy of the core charge distribution:             -13965.50565932552126
  Core Hamiltonian energy:                                   3143.88923688712839
  Hartree energy:                                            6203.61455162540278
  Exchange-correlation energy:                              -1307.34588357495841
[...]
 flops     6 x     6 x   425           1853258400       0.0%    100.0%      0.0%
 flops     6 x     6 x   448           3907104768       0.0%    100.0%      0.0%
 flops     6 x     9 x    13          19906929900       0.0%    100.0%      0.0%
 flops    13 x     9 x     6          19906929900       0.0%    100.0%      0.0%
 flops     6 x    32 x     6          27411333120       0.0%    100.0%      0.0%
 flops    13 x    32 x    32         112623353856       0.0%    100.0%      0.0%
 flops     6 x    13 x   416         216090441216       0.0%    100.0%      0.0%
 flops    13 x     6 x   416         217410880128       0.0%    100.0%      0.0%
 flops     6 x    13 x   425         220765474800       0.0%    100.0%      0.0%
 flops    13 x     6 x   425         222114480900       0.0%    100.0%      0.0%
 flops     6 x    13 x   448         465425565696       0.0%    100.0%      0.0%
 flops    13 x     6 x   448         468269587968       0.0%    100.0%      0.0%
 flops   416 x   416 x   416        2190839119872     100.0%      0.0%      0.0%
 flops   416 x   416 x   425        2238237081600     100.0%      0.0%      0.0%
 flops   416 x   425 x   416        2238237081600     100.0%      0.0%      0.0%
 flops   425 x   416 x   416        2238237081600     100.0%      0.0%      0.0%
 flops   416 x   425 x   425        2286660480000     100.0%      0.0%      0.0%
 flops   425 x   416 x   425        2286660480000     100.0%      0.0%      0.0%
 flops   425 x   425 x   416        2286660480000     100.0%      0.0%      0.0%
 flops   425 x   425 x   425        2336131500000     100.0%      0.0%      0.0%
 flops    13 x     9 x    13        3548251179252       0.0%    100.0%      0.0%
 flops    13 x    32 x     6        3822130540800       0.0%    100.0%      0.0%
 flops     6 x    32 x    13        3822130540800       0.0%    100.0%      0.0%
 flops   416 x   416 x   448        4718730412032     100.0%      0.0%      0.0%
 flops   416 x   448 x   416        4718730412032     100.0%      0.0%      0.0%
 flops   448 x   416 x   416        4718730412032     100.0%      0.0%      0.0%
 flops   416 x   425 x   448        4820818329600     100.0%      0.0%      0.0%
 flops   416 x   448 x   425        4820818329600     100.0%      0.0%      0.0%
 flops   425 x   416 x   448        4820818329600     100.0%      0.0%      0.0%
 flops   425 x   448 x   416        4820818329600     100.0%      0.0%      0.0%
 flops   448 x   416 x   425        4820818329600     100.0%      0.0%      0.0%
 flops   448 x   425 x   416        4820818329600     100.0%      0.0%      0.0%
 flops   425 x   425 x   448        4925114880000     100.0%      0.0%      0.0%
 flops   425 x   448 x   425        4925114880000     100.0%      0.0%      0.0%
 flops   448 x   425 x   425        4925114880000     100.0%      0.0%      0.0%
 flops   448 x   448 x   416       10163419348992     100.0%      0.0%      0.0%
 flops   416 x   448 x   448       10163419348992     100.0%      0.0%      0.0%
 flops   448 x   416 x   448       10163419348992     100.0%      0.0%      0.0%
 flops   448 x   448 x   425       10383301017600     100.0%      0.0%      0.0%
 flops   425 x   448 x   448       10383301017600     100.0%      0.0%      0.0%
 flops   448 x   425 x   448       10383301017600     100.0%      0.0%      0.0%
 flops   416 x   416 x  1878       13878764470272     100.0%      0.0%      0.0%
 flops   416 x   416 x  1884       13923105570816     100.0%      0.0%      0.0%
 flops   416 x   425 x  1878       14179026201600     100.0%      0.0%      0.0%
 flops   425 x   416 x  1878       14179026201600     100.0%      0.0%      0.0%
 flops   416 x   425 x  1884       14224326604800     100.0%      0.0%      0.0%
 flops   425 x   416 x  1884       14224326604800     100.0%      0.0%      0.0%
 flops   425 x   425 x  1878       14485783980000     100.0%      0.0%      0.0%
 flops   425 x   425 x  1884       14532064440000     100.0%      0.0%      0.0%
 flops  1878 x   416 x   416       17215855927296     100.0%      0.0%      0.0%
 flops  1884 x   416 x   416       17270858661888     100.0%      0.0%      0.0%
 flops  1878 x   416 x   425       17588314348800     100.0%      0.0%      0.0%
 flops  1878 x   425 x   416       17588314348800     100.0%      0.0%      0.0%
 flops  1884 x   416 x   425       17644507046400     100.0%      0.0%      0.0%
 flops  1884 x   425 x   416       17644507046400     100.0%      0.0%      0.0%
 flops  1878 x   425 x   425       17968830765000     100.0%      0.0%      0.0%
 flops  1884 x   425 x   425       18026239170000     100.0%      0.0%      0.0%
 flops   448 x   448 x   448       21890441674752     100.0%      0.0%      0.0%
 flops   416 x   448 x  1878       29892723474432     100.0%      0.0%      0.0%
 flops   448 x   416 x  1878       29892723474432     100.0%      0.0%      0.0%
 flops   416 x   448 x  1884       29988227383296     100.0%      0.0%      0.0%
 flops   448 x   416 x  1884       29988227383296     100.0%      0.0%      0.0%
 flops   425 x   448 x  1878       30539441049600     100.0%      0.0%      0.0%
 flops   448 x   425 x  1878       30539441049600     100.0%      0.0%      0.0%
 flops   425 x   448 x  1884       30637011148800     100.0%      0.0%      0.0%
 flops   448 x   425 x  1884       30637011148800     100.0%      0.0%      0.0%
 flops  1878 x   416 x  1878       33322677193728     100.0%      0.0%      0.0%
 flops  1878 x   416 x  1884       33429139421184     100.0%      0.0%      0.0%
 flops  1884 x   416 x  1878       33429139421184     100.0%      0.0%      0.0%
 flops  1884 x   416 x  1884       33535941783552     100.0%      0.0%      0.0%
 flops  1878 x   425 x  1878       34043600498400     100.0%      0.0%      0.0%
 flops  1878 x   425 x  1884       34152365995200     100.0%      0.0%      0.0%
 flops  1884 x   425 x  1878       34152365995200     100.0%      0.0%      0.0%
 flops  1884 x   425 x  1884       34261478985600     100.0%      0.0%      0.0%
 flops  1878 x   448 x   416       37080305074176     100.0%      0.0%      0.0%
 flops  1878 x   416 x   448       37080305074176     100.0%      0.0%      0.0%
 flops  1884 x   416 x   448       37198772502528     100.0%      0.0%      0.0%
 flops  1884 x   448 x   416       37198772502528     100.0%      0.0%      0.0%
 flops  1878 x   448 x   425       37882523212800     100.0%      0.0%      0.0%
 flops  1878 x   425 x   448       37882523212800     100.0%      0.0%      0.0%
 flops  1884 x   425 x   448       38003553638400     100.0%      0.0%      0.0%
 flops  1884 x   448 x   425       38003553638400     100.0%      0.0%      0.0%
 flops    13 x    13 x   416       38760549088768       0.0%    100.0%      0.0%
 flops    13 x    13 x   425       39599118660400       0.0%    100.0%      0.0%
 flops   448 x   448 x  1878       64384327483392     100.0%      0.0%      0.0%
 flops   448 x   448 x  1884       64590028210176     100.0%      0.0%      0.0%
 flops  1878 x   448 x  1878       71771920109568     100.0%      0.0%      0.0%
 flops  1878 x   448 x  1884       72001223368704     100.0%      0.0%      0.0%
 flops  1884 x   448 x  1878       72001223368704     100.0%      0.0%      0.0%
 flops  1884 x   448 x  1884       72231259226112     100.0%      0.0%      0.0%
 flops  1878 x   448 x   448       79865272467456     100.0%      0.0%      0.0%
 flops  1884 x   448 x   448       80120433082368     100.0%      0.0%      0.0%
 flops    13 x    13 x   448       83484259575808       0.0%    100.0%      0.0%
 flops    13 x    32 x    13      681264226416384       0.0%    100.0%      0.0%
 flops inhomo. stacks                           0       0.0%      0.0%      0.0%
 flops total                         2.660099E+15      67.8%     32.2%      0.0%
 flops max/rank                    176.310262E+12      66.8%     33.2%      0.0%
 matmuls inhomo. stacks                         0       0.0%      0.0%      0.0%
 matmuls total                        66861562472       0.0%    100.0%      0.0%
 number of processed stacks              71946396       3.7%     96.3%      0.0%
 average stack size                                     1.0     965.3       0.0
 marketing flops                     3.586612E+15
 -------------------------------------------------------------------------------
 # multiplications                          51250
 max memory usage/rank               2.043118E+09
 # max total images/rank                        1
 # max 3D layers                                1
 # MPI messages exchanged                 4920000
 MPI messages size (bytes):
  total size                        27.310825E+12
  min size                           0.000000E+00
  max size                          28.395648E+06
  average size                       5.550980E+06
 MPI breakdown and total messages size (bytes):
             size <=      128               17952                        0
       128 < size <=     8192                   0                        0
      8192 < size <=    32768                   0                        0
     32768 < size <=   131072                1632                180750528
    131072 < size <=  4194304             2096400            3162596545800
   4194304 < size <= 16777216             2557584           18341677472688
  16777216 < size                          246432            5812839411360
 -------------------------------------------------------------------------------

 MEMORY| Estimated peak process memory [MiB]                                1949

 -------------------------------------------------------------------------------
 -                                                                             -
 -                         MESSAGE PASSING PERFORMANCE                         -
 -                                                                             -
 -------------------------------------------------------------------------------

 ROUTINE             CALLS      AVE VOLUME [Bytes]
 MP_Group             1483
 MP_Bcast            15990                  27938.
 MP_Allreduce       324195                    222.
 MP_Sync                 4
 MP_Alltoall        220586               36974388.
 MP_SendRecv          5400                  25698.
 MP_ISendRecv       167610                 730080.
 MP_Wait           2752515
 MP_ISend           910296                2379061.
 MP_IRecv           910296                2384500.
 MP_Recv             13158                1415888.
 MP_Memory         2258744
 -------------------------------------------------------------------------------


 -------------------------------------------------------------------------------
 -                                                                             -
 -                           R E F E R E N C E S                               -
 -                                                                             -
 -------------------------------------------------------------------------------
 
 CP2K version 7.0 (Development Version), the CP2K developers group (2018).
 CP2K is freely available from https://www.cp2k.org/ .

 Schuett, Ole; Messmer, Peter; Hutter, Juerg; VandeVondele, Joost. 
 Electronic Structure Calculations on Graphics Processing Units, John Wiley & Sons, Ltd, 173-190 (2016). 
 GPU-Accelerated Sparse Matrix-Matrix Multiplication for Linear Scaling Density Functional Theory.
 http://dx.doi.org/10.1002/9781118670712.ch8


 Borstnik, U; VandeVondele, J; Weber, V; Hutter, J. 
 PARALLEL COMPUTING, 40 (5-6), 47-58 (2014). 
 Sparse matrix multiplication: The distributed block-compressed sparse
 row library.
 http://dx.doi.org/10.1016/j.parco.2014.03.012


 Hutter, J; Iannuzzi, M; Schiffmann, F; VandeVondele, J. 
 WILEY INTERDISCIPLINARY REVIEWS-COMPUTATIONAL MOLECULAR SCIENCE, 4 (1), 15-25 (2014). 
 CP2K: atomistic simulations of condensed matter systems.
 http://dx.doi.org/10.1002/wcms.1159


 Grimme, S; Ehrlich, S; Goerigk, L. 
 JOURNAL OF COMPUTATIONAL CHEMISTRY, 32, 1456 (2011). 
 Effect of the damping function in dispersion corrected density functional theory.
 http://dx.doi.org/10.1002/jcc.21759


 Grimme, S; Antony, J; Ehrlich, S; Krieg, H. 
 JOURNAL OF CHEMICAL PHYSICS, 132 (15), 154104 (2010). 
 A consistent and accurate ab initio parametrization of density
 functional dispersion correction (DFT-D) for the 94 elements H-Pu.
 http://dx.doi.org/10.1063/1.3382344


 VandeVondele, J; Hutter, J. 
 JOURNAL OF CHEMICAL PHYSICS, 127 (11), 114105 (2007). 
 Gaussian basis sets for accurate calculations on molecular systems in
 gas and condensed phases.
 http://dx.doi.org/10.1063/1.2770708


 Krack, M. 
 THEORETICAL CHEMISTRY ACCOUNTS, 114 (1-3), 145-152 (2005). 
 Pseudopotentials for H to Kr optimized for gradient-corrected
 exchange-correlation functionals.
 http://dx.doi.org/10.1007/s00214-005-0655-y


 VandeVondele, J; Krack, M; Mohamed, F; Parrinello, M; Chassaing, T;
 Hutter, J. COMPUTER PHYSICS COMMUNICATIONS, 167 (2), 103-128 (2005). 
 QUICKSTEP: Fast and accurate density functional calculations using a
 mixed Gaussian and plane waves approach.
 http://dx.doi.org/10.1016/j.cpc.2004.12.014


 Frigo, M; Johnson, SG. 
 PROCEEDINGS OF THE IEEE, 93 (2), 216-231 (2005). 
 The design and implementation of FFTW3.
 http://dx.doi.org/10.1109/JPROC.2004.840301


 Kolafa, J. 
 JOURNAL OF COMPUTATIONAL CHEMISTRY, 25 (3), 335-342 (2004). 
 Time-reversible always stable predictor-corrector method for molecular dynamics of polarizable molecules.
 http://dx.doi.org/10.1002/jcc.10385


 VandeVondele, J; Hutter, J. 
 JOURNAL OF CHEMICAL PHYSICS, 118 (10), 4365-4369 (2003). 
 An efficient orbital transformation method for electronic structure
 calculations.
 http://dx.doi.org/10.1063/1.1543154


 Hartwigsen, C; Goedecker, S; Hutter, J. 
 PHYSICAL REVIEW B, 58 (7), 3641-3662 (1998). 
 Relativistic separable dual-space Gaussian pseudopotentials from H to Rn.
 http://dx.doi.org/10.1103/PhysRevB.58.3641


 Lippert, G; Hutter, J; Parrinello, M. 
 MOLECULAR PHYSICS, 92 (3), 477-487 (1997). 
 A hybrid Gaussian and plane wave density functional scheme.
 http://dx.doi.org/10.1080/002689797170220


 Perdew, JP; Burke, K; Ernzerhof, M. 
 PHYSICAL REVIEW LETTERS, 77 (18), 3865-3868 (1996). 
 Generalized gradient approximation made simple.
 http://dx.doi.org/10.1103/PhysRevLett.77.3865


 Goedecker, S; Teter, M; Hutter, J. 
 PHYSICAL REVIEW B, 54 (3), 1703-1710 (1996). 
 Separable dual-space Gaussian pseudopotentials.
 http://dx.doi.org/10.1103/PhysRevB.54.1703


 -------------------------------------------------------------------------------
 -                                                                             -
 -                                T I M I N G                                  -
 -                                                                             -
 -------------------------------------------------------------------------------
 SUBROUTINE                       CALLS  ASD         SELF TIME        TOTAL TIME
                                MAXIMUM       AVERAGE  MAXIMUM  AVERAGE  MAXIMUM
 CP2K                                 1  1.0     0.12     0.16 53002.63 53002.66
 cp_geo_opt                           1  2.0     0.01     0.01 53000.19 53000.22
 geoopt_bfgs                          1  3.0     0.20     0.23 53000.19 53000.22
 cp_eval_at                          91  4.0     0.03     0.04 52927.00 52927.06
 qs_forces                           90  5.0     0.02     0.03 52729.86 52729.89
 qs_energies                         91  6.0     0.01     0.02 51489.72 51492.74
 scf_env_do_scf                      91  7.0     0.01     0.02 50300.84 50301.57
 scf_env_do_scf_inner_loop         2703  8.0     0.13     0.33 48217.43 48331.30
 rebuild_ks_matrix                 2793  9.9     0.02     0.02 29795.83 29918.91
 qs_ks_build_kohn_sham_matrix      2793 10.9     0.44     0.47 29795.82 29918.89
 qs_ks_update_qs_env               2839  9.0     0.03     0.04 28758.08 28876.94
 pw_transfer                      53163 13.6     5.86     6.59 20316.66 20401.36
 fft_wrap_pw1pw2                  47577 14.6     0.72     0.76 20142.22 20230.43
 fft_wrap_pw1pw2_150              30816 15.7  1606.93  1800.78 19337.43 19449.66
 qs_vxc_create                     2793 11.9     0.08     0.09 16650.03 16700.90
 xc_vxc_pw_create                  2793 12.9   200.38   205.38 16649.94 16700.82
 fft3d_ps                         47577 16.6  8693.88  9045.27 14775.84 15024.24
 dbcsr_multiply_generic           51250 14.0     4.13     4.44 11795.17 11922.95
 qs_rho_update_rho                 2794  9.0     0.02     0.04 10938.49 11074.16
 calculate_rho_elec                2794 10.0  5759.69  5980.26 10938.46 11074.14
 qs_scf_new_mos                    2703  9.0     0.03     0.04 10247.61 10444.94
 qs_scf_loop_do_ot                 2703 10.0     0.02     0.03 10247.58 10444.91
 multiply_cannon                  51250 15.0     8.26     8.89  9983.68 10393.89
 ot_scf_mini                       2703 11.0     0.16     0.18  9183.00  9365.48
 multiply_cannon_multrec         205000 16.0  8851.58  9337.34  8852.49  9338.18
 sum_up_and_integrate              2793 11.9    41.94    43.48  8948.88  8952.14
 integrate_v_rspace                2793 12.9  5708.93  5884.57  8906.94  8911.16
 xc_rho_set_and_dset_create        2793 13.9    72.99    75.61  8839.86  8904.99
 ot_mini                           2703 12.0     0.02     0.02  5911.23  6113.18
 density_rs2pw                     2794 11.0     0.17     0.20  4780.22  4989.48
 qs_ot_get_derivative              2703 13.0     0.03     0.04  3760.86  3944.37
 x_to_yz                          25138 18.1  2446.18  2504.41  3509.53  3771.18
 yz_to_x                          22439 17.1  1438.44  1471.25  2571.36  2921.48
 potential_pw2rs                   2793 13.9     5.63     5.83  2918.34  2921.33
 mp_alltoall_z22v                 47577 18.6  2196.27  2860.10  2196.27  2860.10
 xc_functional_eval                2793 14.9     0.04     0.05  2544.61  2608.13
 pbe_lda_eval                      2793 15.9  2544.57  2608.08  2544.57  2608.08
 qs_ot_get_derivative_taylor       2611 14.0     0.13     0.16  2411.12  2588.80
 ot_diis_step                      2703 13.0     0.18     0.21  2139.48  2139.49
 pw_gather_p                      22439 16.1  1939.65  2096.67  1939.65  2096.67
 apply_preconditioner_dbcsr        2839 14.0     0.01     0.01  1972.23  2009.29
 apply_single                      2839 15.0     0.01     0.02  1972.22  2009.28
 init_scf_loop                      136  8.0     0.01     0.01  1972.91  1973.46
 pw_scatter_p                     25138 17.1  1773.77  1842.02  1773.77  1842.02
 rs_pw_transfer                   22529 13.4     0.54     0.58  1643.75  1827.42
 mp_waitall_1                   2661675 17.6  1097.17  1242.17  1097.17  1242.17
 calculate_dm_sparse               2794 11.0     0.02     0.03  1102.97  1208.25
 make_m2s                        102500 15.0     3.23     3.63  1139.53  1170.74
 qs_ks_update_qs_env_forces          90  6.0     0.00     0.00  1061.58  1065.73
 -------------------------------------------------------------------------------

 The number of warnings for this run is : 1
 
 -------------------------------------------------------------------------------
  **** **** ******  **  PROGRAM ENDED AT                 2023-10-10 09:52:00.031
 ***** ** ***  *** **   PROGRAM RAN ON                                sebnode109
 **    ****   ******    PROGRAM RAN BY                                    luehrs
 ***** **    ** ** **   PROGRAM PROCESS ID                               2061479
  **** **  *******  **  PROGRAM STOPPED IN /home/luehrs/PhD/Li-S_paper/Li-S-Surf
                                           ace_Reaction/Third_Lithiation_of_S8_S
                                           urface/Third_Lithiation_around_S8/Thi
                                           rd_Lithiation_L4/Third_Lithiation_ort
                                           hogonal/2.S8_o
