 DBCSR| Multiplication driver                                               XSMM
 DBCSR| Multrec recursion limit                                              512
 DBCSR| Multiplication stack size                                           1000
 DBCSR| Maximum elements for images                                    UNLIMITED
 DBCSR| Multiplicative factor virtual images                                   1
 DBCSR| Multiplication size stacks                                             3
 DBCSR| Number of 3D layers                                               SINGLE
 DBCSR| Use MPI memory allocation                                              T
 DBCSR| Use RMA algorithm                                                      F
 DBCSR| Use Communication thread                                               T
 DBCSR| Communication thread load                                             87


  **** **** ******  **  PROGRAM STARTED AT               2023-06-07 14:54:24.773
 ***** ** ***  *** **   PROGRAM STARTED ON                            sebnode042
 **    ****   ******    PROGRAM STARTED BY                                luehrs
 ***** **    ** ** **   PROGRAM PROCESS ID                               1221387
  **** **  *******  **  PROGRAM STARTED IN /home/luehrs/PhD/Li-S_paper/Li-S-Surf
                                           ace_Reaction/Third_Lithiation_of_S8_S
                                           urface/Third_Lithiation_around_S8/Thi
                                           rd_Lithiation_L3/Third_Lithiation_par
                                           allel/1.S8_p

 CP2K| version string:                    CP2K version 7.0 (Development Version)
 CP2K| source code revision number:                                             
 CP2K| cp2kflags: libint fftw3 libxc parallel mpi3 scalapack xsmm libderiv_max_a
 CP2K|            m1=8 libint_max_am=9 max_contr=4
 CP2K| is freely available from                            https://www.cp2k.org/
 CP2K| Program compiled at                         Sun Jun 24 14:37:16 CEST 2018
 CP2K| Program compiled on                                            sebstorage
 CP2K| Program compiled for                                Linux-x86-64-gfortran
 CP2K| Data directory path    /home/brehm/Software_Batchnode/2018/Source/cp2k_18
 CP2K| Input file name                                                input1.inp

 GLOBAL| Force Environment number                                              1
 GLOBAL| Basis set file name                                      ./BASIS_MOLOPT
 GLOBAL| Potential file name                                    ./GTH_POTENTIALS
 GLOBAL| MM Potential file name                                     MM_POTENTIAL
 GLOBAL| Coordinate file name              ./Third_lithiation_S8_1.p_relaxed.xyz
 GLOBAL| Method name                                                        CP2K
 GLOBAL| Project name                                                   Li_react
 GLOBAL| Preferred FFT library                                             FFTW3
 GLOBAL| Preferred diagonalization lib.                                       SL
 GLOBAL| Run type                                                        GEO_OPT
 GLOBAL| All-to-all communication in single precision                          F
 GLOBAL| FFTs using library dependent lengths                                  F
 GLOBAL| Global print level                                                  LOW
 GLOBAL| Total number of message passing processes                            16
 GLOBAL| Number of threads for this process                                    1
 GLOBAL| This output is from process                                           0
 GLOBAL| CPU model name :  Intel(R) Xeon(R) CPU E5-2630 v3 @ 2.40GHz

 MEMORY| system memory details [Kb]
 MEMORY|                        rank 0           min           max       average
 MEMORY| MemTotal             65850808      65850808      65850808      65850808
 MEMORY| MemFree              62588556      62588556      62588556      62588556
 MEMORY| Buffers                511564        511564        511564        511564
 MEMORY| Cached                 643600        643600        643600        643600
 MEMORY| Slab                   924032        924032        924032        924032
 MEMORY| SReclaimable           344460        344460        344460        344460
 MEMORY| MemLikelyFree        64088180      64088180      64088180      64088180


 GENERATE|  Preliminary Number of Bonds generated:                             0
 GENERATE|  Achieved consistency in connectivity generation.

 *******************************************************************************
 *******************************************************************************
 **                                                                           **
 **     #####                         ##              ##                      **
 **    ##   ##            ##          ##              ##                      **
 **   ##     ##                       ##            ######                    **
 **   ##     ##  ##   ##  ##   #####  ##  ##   ####   ##    #####    #####    **
 **   ##     ##  ##   ##  ##  ##      ## ##   ##      ##   ##   ##  ##   ##   **
 **   ##  ## ##  ##   ##  ##  ##      ####     ###    ##   ######   ######    **
 **    ##  ###   ##   ##  ##  ##      ## ##      ##   ##   ##       ##        **
 **     #######   #####   ##   #####  ##  ##  ####    ##    #####   ##        **
 **           ##                                                    ##        **
 **                                                                           **
 **                                                ... make the atoms dance   **
 **                                                                           **
 **            Copyright (C) by CP2K developers group (2000 - 2018)           **
 **                                                                           **
 *******************************************************************************


 TOTAL NUMBERS AND MAXIMUM NUMBERS

  Total number of            - Atomic kinds:                                   2
                             - Atoms:                                        582
                             - Shell sets:                                   582
                             - Shells:                                      2904
                             - Primitive Cartesian functions:               3486
                             - Cartesian basis functions:                   8100
                             - Spherical basis functions:                   7524

  Maximum angular momentum of- Orbital basis functions:                        2
                             - Local part of the GTH pseudopotential:          6
                             - Non-local part of the GTH pseudopotential:      2


 SCF PARAMETERS         Density guess:                                   RESTART
                        --------------------------------------------------------
                        max_scf:                                              30
                        max_scf_history:                                       0
                        max_diis:                                              4
                        --------------------------------------------------------
                        eps_scf:                                        1.00E-06
                        eps_scf_history:                                0.00E+00
                        eps_diis:                                       1.00E-01
                        eps_eigval:                                     1.00E-05
                        --------------------------------------------------------
                        level_shift [a.u.]:                                 0.00
                        --------------------------------------------------------
                        Outer loop SCF in use 
                        No variables optimised in outer loop
                        eps_scf                                         1.00E-06
                        max_scf                                               25
                        DIIS optimization
                        DIIS buffer length                                     3
                        step_size                                       5.00E-01

 BFGS| Use rational function optimization for step estimation:                NO
 BFGS| Use model Hessian for initial guess:                                  YES
 BFGS| Restart Hessian:                                                       NO
 BFGS| Trust radius:                                                       0.472

 *******************************************************************************
 ***                     STARTING GEOMETRY OPTIMIZATION                      ***
 ***                                   BFGS                                  ***
 *******************************************************************************

 Number of electrons:                                                       3474
 Number of occupied orbitals:                                               1737
 Number of molecular orbitals:                                              1737

 Number of orbital functions:                                               7524
 Number of independent orbital functions:                                   7524

 Extrapolation method: initial_guess

 *** WARNING in qs_initial_guess.F:263 :: User requested to restart the   ***
 *** wavefunction from the file named: Li_react-RESTART.wfn. This file    ***
 *** does not exist. Please check the existence of the file or change     ***
 *** properly the value of the keyword WFN_RESTART_FILE_NAME. Calculation ***
 *** continues using ATOMIC GUESS.                                        ***



 SCF WAVEFUNCTION OPTIMIZATION

  ----------------------------------- OT ---------------------------------------
  Minimizer      : DIIS                : direct inversion
                                         in the iterative subspace
                                         using   8 DIIS vectors
                                         safer DIIS on
  Preconditioner : FULL_KINETIC        : inversion of T + eS
  Precond_solver : DEFAULT
  stepsize       :    0.15000000                  energy_gap     :    0.00010000
  eps_taylor     :   0.10000E-15                  max_taylor     :             4
  ----------------------------------- OT ---------------------------------------

  Step     Update method      Time    Convergence         Total energy    Change
  ------------------------------------------------------------------------------
     1 OT DIIS     0.15E+00   16.4     0.00641616     -5756.6928989028 -5.76E+03
     2 OT DIIS     0.15E+00   16.8     0.02520372     -5755.7595127660  9.33E-01
     3 OT DIIS     0.15E+00   16.8     0.00632104     -5810.4257775633 -5.47E+01
     4 OT DIIS     0.15E+00   16.8     0.00636314     -5831.2030971234 -2.08E+01
     5 OT DIIS     0.15E+00   16.8     0.00542800     -5846.9610043920 -1.58E+01
     6 OT DIIS     0.15E+00   16.8     0.00414914     -5858.4393286580 -1.15E+01
     7 OT DIIS     0.15E+00   16.8     0.00272727     -5873.9735386673 -1.55E+01
     8 OT DIIS     0.15E+00   16.8     0.00302958     -5883.6355550496 -9.66E+00
     9 OT DIIS     0.15E+00   16.8     0.00195438     -5891.7479814469 -8.11E+00
    10 OT DIIS     0.15E+00   16.8     0.00188959     -5897.2439035057 -5.50E+00
    11 OT DIIS     0.15E+00   16.8     0.00176614     -5901.0213868710 -3.78E+00
    12 OT DIIS     0.15E+00   16.9     0.00175371     -5904.2858216349 -3.26E+00
    13 OT DIIS     0.15E+00   16.8     0.00133260     -5906.9383547628 -2.65E+00
    14 OT DIIS     0.15E+00   16.8     0.00111807     -5910.0601401642 -3.12E+00
    15 OT DIIS     0.15E+00   16.9     0.00102892     -5912.8279585092 -2.77E+00
    16 OT DIIS     0.15E+00   16.9     0.00100228     -5914.7659774116 -1.94E+00
    17 OT DIIS     0.15E+00   16.9     0.00100837     -5916.2559099246 -1.49E+00
    18 OT DIIS     0.15E+00   16.8     0.00075470     -5917.9137978405 -1.66E+00
    19 OT DIIS     0.15E+00   16.8     0.00084022     -5919.0414531204 -1.13E+00
    20 OT DIIS     0.15E+00   16.8     0.00070445     -5919.9852414050 -9.44E-01
    21 OT DIIS     0.15E+00   16.7     0.00064022     -5921.0335985190 -1.05E+00
    22 OT DIIS     0.15E+00   16.8     0.00060120     -5921.7941985534 -7.61E-01
    23 OT DIIS     0.15E+00   16.8     0.00064038     -5922.4396570449 -6.45E-01
    24 OT DIIS     0.15E+00   16.7     0.00049687     -5923.1516145335 -7.12E-01
    25 OT DIIS     0.15E+00   16.7     0.00044874     -5923.5860446254 -4.34E-01
    26 OT DIIS     0.15E+00   16.8     0.00047584     -5924.0058411604 -4.20E-01
    27 OT DIIS     0.15E+00   16.7     0.00037168     -5924.2960817028 -2.90E-01
    28 OT DIIS     0.15E+00   16.7     0.00039868     -5924.6302301162 -3.34E-01
    29 OT DIIS     0.15E+00   16.8     0.00035436     -5924.8812130958 -2.51E-01
    30 OT DIIS     0.15E+00   16.8     0.00034996     -5925.2045727954 -3.23E-01

  Leaving inner SCF loop after reaching    30 steps.


  Electronic density on regular grids:      -3474.0000000005       -0.0000000005
  Core density on regular grids:             3473.9999999952       -0.0000000048
  Total charge density on r-space grids:       -0.0000000053
  Total charge density g-space grids:          -0.0000000044

  Overlap energy of the core charge distribution:               0.00000032685014
  Self energy of the core charge distribution:             -13965.50565932552126
  Core Hamiltonian energy:                                   3147.46245668200800
  Hartree energy:                                            6202.36143841593639
  Exchange-correlation energy:                              -1307.05355995226682
  Dispersion energy:                                           -2.46924894244530

  Total energy:                                             -5925.20457279543734

  outer SCF iter =    1 RMS gradient =   0.35E-03 energy =      -5925.2045727954

  ----------------------------------- OT ---------------------------------------
  Minimizer      : DIIS                : direct inversion
                                         in the iterative subspace
                                         using   8 DIIS vectors
                                         safer DIIS on
  Preconditioner : FULL_KINETIC        : inversion of T + eS
  Precond_solver : DEFAULT
  stepsize       :    0.15000000                  energy_gap     :    0.00010000
  eps_taylor     :   0.10000E-15                  max_taylor     :             4
  ----------------------------------- OT ---------------------------------------

  Step     Update method      Time    Convergence         Total energy    Change
  ------------------------------------------------------------------------------
     1 OT DIIS     0.15E+00   37.0     0.00042294     -5925.3585064187 -1.54E-01
     2 OT DIIS     0.15E+00   16.5     0.00105004     -5925.4585937591 -1.00E-01
     3 OT DIIS     0.15E+00   16.5     0.00039853     -5925.6412518519 -1.83E-01
     4 OT DIIS     0.15E+00   16.8     0.00059330     -5925.7192075091 -7.80E-02
     5 OT DIIS     0.15E+00   16.8     0.00037152     -5925.9650391448 -2.46E-01
     6 OT DIIS     0.15E+00   16.8     0.00036672     -5926.1254464306 -1.60E-01
     7 OT DIIS     0.15E+00   16.8     0.00028105     -5926.2447835141 -1.19E-01
     8 OT DIIS     0.15E+00   16.8     0.00039011     -5926.3912659343 -1.46E-01
     9 OT DIIS     0.15E+00   16.8     0.00025679     -5926.5852809325 -1.94E-01
    10 OT DIIS     0.15E+00   16.8     0.00024376     -5926.6442884141 -5.90E-02
    11 OT DIIS     0.15E+00   16.7     0.00028608     -5926.8339946609 -1.90E-01
    12 OT DIIS     0.15E+00   16.8     0.00023852     -5926.9432998733 -1.09E-01
    13 OT DIIS     0.15E+00   16.9     0.00023880     -5927.0072606169 -6.40E-02
    14 OT DIIS     0.15E+00   16.9     0.00021972     -5927.0981743955 -9.09E-02
    15 OT DIIS     0.15E+00   16.9     0.00018934     -5927.1627985037 -6.46E-02
    16 OT DIIS     0.15E+00   16.8     0.00017449     -5927.2133198779 -5.05E-02
    17 OT DIIS     0.15E+00   16.9     0.00017318     -5927.2580211473 -4.47E-02
    18 OT DIIS     0.15E+00   16.9     0.00016055     -5927.3177266376 -5.97E-02
    19 OT DIIS     0.15E+00   16.8     0.00013551     -5927.3391695045 -2.14E-02
    20 OT DIIS     0.15E+00   16.8     0.00013777     -5927.3855186774 -4.63E-02
    21 OT DIIS     0.15E+00   16.8     0.00013229     -5927.4131748738 -2.77E-02
    22 OT DIIS     0.15E+00   16.8     0.00012839     -5927.4359493078 -2.28E-02
    23 OT DIIS     0.15E+00   16.8     0.00012955     -5927.4651782138 -2.92E-02
    24 OT DIIS     0.15E+00   16.8     0.00011772     -5927.4946400856 -2.95E-02
    25 OT DIIS     0.15E+00   16.8     0.00011647     -5927.5177646254 -2.31E-02
    26 OT DIIS     0.15E+00   16.8     0.00011839     -5927.5460385167 -2.83E-02
    27 OT DIIS     0.15E+00   16.8     0.00011343     -5927.5768512847 -3.08E-02
    28 OT DIIS     0.15E+00   16.8     0.00010513     -5927.5935260918 -1.67E-02
    29 OT DIIS     0.15E+00   16.9     0.00010201     -5927.6188743052 -2.53E-02
    30 OT DIIS     0.15E+00   16.8     0.00010198     -5927.6391521740 -2.03E-02

  Leaving inner SCF loop after reaching    30 steps.


  Electronic density on regular grids:      -3474.0000000005       -0.0000000005
  Core density on regular grids:             3473.9999999952       -0.0000000048
  Total charge density on r-space grids:       -0.0000000053
  Total charge density g-space grids:          -0.0000000044

  Overlap energy of the core charge distribution:               0.00000032685014
  Self energy of the core charge distribution:             -13965.50565932552126
  Core Hamiltonian energy:                                   3144.28833221532341
  Hartree energy:                                            6203.42991401246582
  Exchange-correlation energy:                              -1307.38249046069791
  Dispersion energy:                                           -2.46924894244530

  Total energy:                                             -5927.63915217402518

  outer SCF iter =    2 RMS gradient =   0.10E-03 energy =      -5927.6391521740

  ----------------------------------- OT ---------------------------------------
  Minimizer      : DIIS                : direct inversion
                                         in the iterative subspace
                                         using   8 DIIS vectors
                                         safer DIIS on
  Preconditioner : FULL_KINETIC        : inversion of T + eS
  Precond_solver : DEFAULT
  stepsize       :    0.15000000                  energy_gap     :    0.00010000
  eps_taylor     :   0.10000E-15                  max_taylor     :             4
  ----------------------------------- OT ---------------------------------------

  Step     Update method      Time    Convergence         Total energy    Change
  ------------------------------------------------------------------------------
     1 OT DIIS     0.15E+00   39.0     0.00010899     -5927.6495911380 -1.04E-02
     2 OT DIIS     0.15E+00   16.3     0.00048694     -5927.6347609865  1.48E-02
     3 OT DIIS     0.15E+00   16.3     0.00008955     -5927.6638031109 -2.90E-02
     4 OT DIIS     0.15E+00   16.4     0.00010075     -5927.6679242178 -4.12E-03
     5 OT DIIS     0.15E+00   16.4     0.00010153     -5927.6802588854 -1.23E-02
     6 OT DIIS     0.15E+00   16.4     0.00008850     -5927.6940576410 -1.38E-02
     7 OT DIIS     0.15E+00   16.3     0.00006614     -5927.6994913151 -5.43E-03
     8 OT DIIS     0.15E+00   16.7     0.00007798     -5927.7064532756 -6.96E-03
     9 OT DIIS     0.15E+00   16.9     0.00006850     -5927.7221411835 -1.57E-02
    10 OT DIIS     0.15E+00   16.8     0.00005211     -5927.7215919444  5.49E-04
    11 OT DIIS     0.15E+00   16.9     0.00008755     -5927.7366402477 -1.50E-02
    12 OT DIIS     0.15E+00   16.8     0.00006420     -5927.7416478839 -5.01E-03
    13 OT DIIS     0.15E+00   16.9     0.00004612     -5927.7437487815 -2.10E-03
    14 OT DIIS     0.15E+00   16.8     0.00003657     -5927.7462692720 -2.52E-03
    15 OT DIIS     0.15E+00   16.9     0.00003612     -5927.7479761157 -1.71E-03
    16 OT DIIS     0.15E+00   16.8     0.00002813     -5927.7489163092 -9.40E-04
    17 OT DIIS     0.15E+00   16.9     0.00003187     -5927.7499727984 -1.06E-03
    18 OT DIIS     0.15E+00   16.8     0.00002467     -5927.7514197559 -1.45E-03
    19 OT DIIS     0.15E+00   16.8     0.00002151     -5927.7517114934 -2.92E-04
    20 OT DIIS     0.15E+00   16.9     0.00002173     -5927.7523962531 -6.85E-04
    21 OT DIIS     0.15E+00   16.7     0.00001920     -5927.7529782895 -5.82E-04
    22 OT DIIS     0.15E+00   16.8     0.00001700     -5927.7532738557 -2.96E-04
    23 OT DIIS     0.15E+00   16.8     0.00001987     -5927.7538641734 -5.90E-04
    24 OT DIIS     0.15E+00   16.8     0.00001864     -5927.7545050507 -6.41E-04
    25 OT DIIS     0.15E+00   16.8     0.00001513     -5927.7549814732 -4.76E-04
    26 OT DIIS     0.15E+00   16.7     0.00001506     -5927.7556530719 -6.72E-04
    27 OT DIIS     0.15E+00   16.8     0.00001486     -5927.7563666411 -7.14E-04
    28 OT DIIS     0.15E+00   16.7     0.00001375     -5927.7566417797 -2.75E-04
    29 OT DIIS     0.15E+00   16.7     0.00001531     -5927.7571795565 -5.38E-04
    30 OT DIIS     0.15E+00   16.7     0.00001331     -5927.7577727782 -5.93E-04

  Leaving inner SCF loop after reaching    30 steps.


  Electronic density on regular grids:      -3474.0000000005       -0.0000000005
  Core density on regular grids:             3473.9999999952       -0.0000000048
  Total charge density on r-space grids:       -0.0000000053
  Total charge density g-space grids:          -0.0000000044

  Overlap energy of the core charge distribution:               0.00000032685014
  Self energy of the core charge distribution:             -13965.50565932552126
  Core Hamiltonian energy:                                   3144.16538616743219
  Hartree energy:                                            6203.45189637905605
  Exchange-correlation energy:                              -1307.40014738354148
  Dispersion energy:                                           -2.46924894244530

  Total energy:                                             -5927.75777277816815

  outer SCF iter =    3 RMS gradient =   0.13E-04 energy =      -5927.7577727782

  ----------------------------------- OT ---------------------------------------
  Minimizer      : DIIS                : direct inversion
                                         in the iterative subspace
                                         using   8 DIIS vectors
                                         safer DIIS on
  Preconditioner : FULL_KINETIC        : inversion of T + eS
  Precond_solver : DEFAULT
  stepsize       :    0.15000000                  energy_gap     :    0.00010000
  eps_taylor     :   0.10000E-15                  max_taylor     :             4
  ----------------------------------- OT ---------------------------------------

  Step     Update method      Time    Convergence         Total energy    Change
  ------------------------------------------------------------------------------
     1 OT DIIS     0.15E+00   36.9     0.00001344     -5927.7580159174 -2.43E-04
     2 OT DIIS     0.15E+00   16.3     0.00005025     -5927.7579105905  1.05E-04
     3 OT DIIS     0.15E+00   16.2     0.00001311     -5927.7582568176 -3.46E-04
     4 OT DIIS     0.15E+00   16.3     0.00001111     -5927.7583127246 -5.59E-05
     5 OT DIIS     0.15E+00   16.4     0.00001156     -5927.7585268715 -2.14E-04
     6 OT DIIS     0.15E+00   16.4     0.00001243     -5927.7590933657 -5.66E-04
     7 OT DIIS     0.15E+00   16.4     0.00000888     -5927.7593628573 -2.69E-04
     8 OT DIIS     0.15E+00   16.5     0.00001035     -5927.7595930502 -2.30E-04
     9 OT DIIS     0.15E+00   16.5     0.00001228     -5927.7599026448 -3.10E-04
    10 OT DIIS     0.15E+00   16.5     0.00000713     -5927.7600109432 -1.08E-04
    11 OT DIIS     0.15E+00   16.4     0.00001092     -5927.7604055303 -3.95E-04
    12 OT DIIS     0.15E+00   16.5     0.00000929     -5927.7605918669 -1.86E-04
    13 OT DIIS     0.15E+00   16.5     0.00000788     -5927.7606266767 -3.48E-05
    14 OT DIIS     0.15E+00   16.5     0.00000705     -5927.7607542257 -1.28E-04
    15 OT DIIS     0.15E+00   16.5     0.00000639     -5927.7608909151 -1.37E-04
    16 OT DIIS     0.15E+00   16.5     0.00000590     -5927.7609718917 -8.10E-05
    17 OT DIIS     0.15E+00   16.5     0.00000600     -5927.7610470171 -7.51E-05
    18 OT DIIS     0.15E+00   16.4     0.00000614     -5927.7612299934 -1.83E-04
    19 OT DIIS     0.15E+00   16.4     0.00000527     -5927.7612967398 -6.67E-05
    20 OT DIIS     0.15E+00   16.4     0.00000603     -5927.7614420691 -1.45E-04
    21 OT DIIS     0.15E+00   16.4     0.00000549     -5927.7615655261 -1.23E-04
    22 OT DIIS     0.15E+00   16.4     0.00000542     -5927.7616126000 -4.71E-05
    23 OT DIIS     0.15E+00   16.4     0.00000564     -5927.7617312359 -1.19E-04
    24 OT DIIS     0.15E+00   16.4     0.00000507     -5927.7619318175 -2.01E-04
    25 OT DIIS     0.15E+00   16.4     0.00000506     -5927.7620609877 -1.29E-04
    26 OT DIIS     0.15E+00   16.4     0.00000510     -5927.7621682311 -1.07E-04
    27 OT DIIS     0.15E+00   16.4     0.00000479     -5927.7623505126 -1.82E-04
    28 OT DIIS     0.15E+00   16.4     0.00000438     -5927.7624161835 -6.57E-05
    29 OT DIIS     0.15E+00   16.7     0.00000474     -5927.7625098961 -9.37E-05
    30 OT DIIS     0.15E+00   16.8     0.00000446     -5927.7626718346 -1.62E-04

  Leaving inner SCF loop after reaching    30 steps.


  Electronic density on regular grids:      -3474.0000000005       -0.0000000005
  Core density on regular grids:             3473.9999999952       -0.0000000048
  Total charge density on r-space grids:       -0.0000000054
  Total charge density g-space grids:          -0.0000000044

  Overlap energy of the core charge distribution:               0.00000032685014
  Self energy of the core charge distribution:             -13965.50565932552126
  Core Hamiltonian energy:                                   3144.17459794316846
  Hartree energy:                                            6203.44503789448390
  Exchange-correlation energy:                              -1307.40739973110408
  Dispersion energy:                                           -2.46924894244530

  Total energy:                                             -5927.76267183456730

  outer SCF iter =    4 RMS gradient =   0.45E-05 energy =      -5927.7626718346

  ----------------------------------- OT ---------------------------------------
  Minimizer      : DIIS                : direct inversion
                                         in the iterative subspace
                                         using   8 DIIS vectors
                                         safer DIIS on
  Preconditioner : FULL_KINETIC        : inversion of T + eS
  Precond_solver : DEFAULT
  stepsize       :    0.15000000                  energy_gap     :    0.00010000
  eps_taylor     :   0.10000E-15                  max_taylor     :             4
  ----------------------------------- OT ---------------------------------------

  Step     Update method      Time    Convergence         Total energy    Change
  ------------------------------------------------------------------------------
     1 OT DIIS     0.15E+00   38.2     0.00000478     -5927.7627200021 -4.82E-05
     2 OT DIIS     0.15E+00   16.1     0.00002108     -5927.7626903166  2.97E-05
     3 OT DIIS     0.15E+00   16.2     0.00000422     -5927.7627472566 -5.69E-05
     4 OT DIIS     0.15E+00   16.2     0.00000369     -5927.7627538428 -6.59E-06
     5 OT DIIS     0.15E+00   16.3     0.00000392     -5927.7627777541 -2.39E-05
     6 OT DIIS     0.15E+00   16.4     0.00000419     -5927.7628416260 -6.39E-05
     7 OT DIIS     0.15E+00   16.4     0.00000326     -5927.7628726845 -3.11E-05
     8 OT DIIS     0.15E+00   16.4     0.00000409     -5927.7629080617 -3.54E-05
     9 OT DIIS     0.15E+00   16.4     0.00000313     -5927.7629456961 -3.76E-05
    10 OT DIIS     0.15E+00   16.4     0.00000236     -5927.7629632324 -1.75E-05
    11 OT DIIS     0.15E+00   16.5     0.00000360     -5927.7629910121 -2.78E-05
    12 OT DIIS     0.15E+00   16.5     0.00000253     -5927.7630092546 -1.82E-05
    13 OT DIIS     0.15E+00   16.5     0.00000250     -5927.7630142149 -4.96E-06
    14 OT DIIS     0.15E+00   16.5     0.00000242     -5927.7630321083 -1.79E-05
    15 OT DIIS     0.15E+00   16.5     0.00000222     -5927.7630511419 -1.90E-05
    16 OT DIIS     0.15E+00   16.5     0.00000205     -5927.7630617501 -1.06E-05
    17 OT DIIS     0.15E+00   16.5     0.00000214     -5927.7630762597 -1.45E-05
    18 OT DIIS     0.15E+00   16.4     0.00000204     -5927.7630964055 -2.01E-05
    19 OT DIIS     0.15E+00   16.4     0.00000197     -5927.7631046970 -8.29E-06
    20 OT DIIS     0.15E+00   16.4     0.00000210     -5927.7631262025 -2.15E-05
    21 OT DIIS     0.15E+00   16.3     0.00000201     -5927.7631461245 -1.99E-05
    22 OT DIIS     0.15E+00   16.4     0.00000199     -5927.7631531800 -7.06E-06
    23 OT DIIS     0.15E+00   16.4     0.00000198     -5927.7631739873 -2.08E-05
    24 OT DIIS     0.15E+00   16.4     0.00000190     -5927.7631982957 -2.43E-05
    25 OT DIIS     0.15E+00   16.4     0.00000183     -5927.7632140684 -1.58E-05
    26 OT DIIS     0.15E+00   16.3     0.00000185     -5927.7632385563 -2.45E-05
    27 OT DIIS     0.15E+00   16.4     0.00000173     -5927.7632759876 -3.74E-05
    28 OT DIIS     0.15E+00   16.4     0.00000176     -5927.7632907758 -1.48E-05
    29 OT DIIS     0.15E+00   16.4     0.00000191     -5927.7633223181 -3.15E-05
    30 OT DIIS     0.15E+00   16.4     0.00000172     -5927.7633490925 -2.68E-05

  Leaving inner SCF loop after reaching    30 steps.


  Electronic density on regular grids:      -3474.0000000046       -0.0000000046
  Core density on regular grids:             3473.9999999952       -0.0000000048
  Total charge density on r-space grids:       -0.0000000094
  Total charge density g-space grids:          -0.0000000084

  Overlap energy of the core charge distribution:               0.00000032685014
  Self energy of the core charge distribution:             -13965.50565932552126
  Core Hamiltonian energy:                                   3144.17032637202965
  Hartree energy:                                            6203.44721368261526
  Exchange-correlation energy:                              -1307.40598120606819
  Dispersion energy:                                           -2.46924894244530

  Total energy:                                             -5927.76334909253819

  outer SCF iter =    5 RMS gradient =   0.17E-05 energy =      -5927.7633490925

  ----------------------------------- OT ---------------------------------------
  Minimizer      : DIIS                : direct inversion
                                         in the iterative subspace
                                         using   8 DIIS vectors
                                         safer DIIS on
  Preconditioner : FULL_KINETIC        : inversion of T + eS
  Precond_solver : DEFAULT
  stepsize       :    0.15000000                  energy_gap     :    0.00010000
  eps_taylor     :   0.10000E-15                  max_taylor     :             4
  ----------------------------------- OT ---------------------------------------

  Step     Update method      Time    Convergence         Total energy    Change
  ------------------------------------------------------------------------------
     1 OT DIIS     0.15E+00   36.7     0.00000177     -5927.7633593376 -1.02E-05
     2 OT DIIS     0.15E+00   16.1     0.00000742     -5927.7633565881  2.75E-06
     3 OT DIIS     0.15E+00   16.2     0.00000151     -5927.7633635895 -7.00E-06
     4 OT DIIS     0.15E+00   16.2     0.00000147     -5927.7633646597 -1.07E-06
     5 OT DIIS     0.15E+00   16.2     0.00000154     -5927.7633702007 -5.54E-06
     6 OT DIIS     0.15E+00   16.2     0.00000140     -5927.7633834449 -1.32E-05
     7 OT DIIS     0.15E+00   16.2     0.00000129     -5927.7633876493 -4.20E-06
     8 OT DIIS     0.15E+00   16.3     0.00000145     -5927.7633933965 -5.75E-06
     9 OT DIIS     0.15E+00   16.3     0.00000116     -5927.7633981379 -4.74E-06
    10 OT DIIS     0.15E+00   16.3     0.00000103     -5927.7633997476 -1.61E-06
    11 OT DIIS     0.15E+00   16.4     0.00000134     -5927.7634061636 -6.42E-06
    12 OT DIIS     0.15E+00   16.5     0.00000113     -5927.7634094454 -3.28E-06
    13 OT DIIS     0.15E+00   16.5     0.00000108     -5927.7634104283 -9.83E-07
    14 OT DIIS     0.15E+00   16.5     0.00000103     -5927.7634155287 -5.10E-06
    15 OT DIIS     0.15E+00   16.5     0.00000096     -5927.7634204250 -4.90E-06

  *** SCF run converged in    15 steps ***


  Electronic density on regular grids:      -3474.0000000005       -0.0000000005
  Core density on regular grids:             3473.9999999952       -0.0000000048
  Total charge density on r-space grids:       -0.0000000054
  Total charge density g-space grids:          -0.0000000044

  Overlap energy of the core charge distribution:               0.00000032685014
  Self energy of the core charge distribution:             -13965.50565932552126
  Core Hamiltonian energy:                                   3144.17120229419561
  Hartree energy:                                            6203.44678466177356
  Exchange-correlation energy:                              -1307.40649943984931
  Dispersion energy:                                           -2.46924894244530

  Total energy:                                             -5927.76342042499618

  outer SCF iter =    6 RMS gradient =   0.96E-06 energy =      -5927.7634204250
  outer SCF loop converged in   6 iterations or  165 steps


 ENERGY| Total FORCE_EVAL ( QS ) energy (a.u.):            -5927.763422887458546


 --------  Informations at step =     0 ------------
  Optimization Method        =                 BFGS
  Total Energy               =     -5927.7634228875
  Used time                  =             2797.741
 ---------------------------------------------------

 --------------------------
 OPTIMIZATION STEP:      1
 --------------------------

 Number of electrons:                                                       3474
 Number of occupied orbitals:                                               1737
 Number of molecular orbitals:                                              1737

 Number of orbital functions:                                               7524
 Number of independent orbital functions:                                   7524

 Extrapolation method: ASPC


 SCF WAVEFUNCTION OPTIMIZATION

  ----------------------------------- OT ---------------------------------------
  Minimizer      : DIIS                : direct inversion
                                         in the iterative subspace
                                         using   8 DIIS vectors
                                         safer DIIS on
  Preconditioner : FULL_KINETIC        : inversion of T + eS
  Precond_solver : DEFAULT
  stepsize       :    0.15000000                  energy_gap     :    0.00010000
  eps_taylor     :   0.10000E-15                  max_taylor     :             4
  ----------------------------------- OT ---------------------------------------

  Step     Update method      Time    Convergence         Total energy    Change
  ------------------------------------------------------------------------------
     1 OT DIIS     0.15E+00   15.9     0.00003128     -5927.7660884813 -5.93E+03
     2 OT DIIS     0.15E+00   16.4     0.00002190     -5927.7676662594 -1.58E-03
     3 OT DIIS     0.15E+00   16.4     0.00003297     -5927.7688532354 -1.19E-03
     4 OT DIIS     0.15E+00   16.4     0.00002800     -5927.7690945017 -2.41E-04
     5 OT DIIS     0.15E+00   16.5     0.00002287     -5927.7694935260 -3.99E-04
     6 OT DIIS     0.15E+00   16.4     0.00001941     -5927.7697556340 -2.62E-04
     7 OT DIIS     0.15E+00   16.5     0.00001200     -5927.7699943393 -2.39E-04
     8 OT DIIS     0.15E+00   16.4     0.00001438     -5927.7700936111 -9.93E-05
     9 OT DIIS     0.15E+00   16.5     0.00001034     -5927.7701954294 -1.02E-04
    10 OT DIIS     0.15E+00   16.5     0.00000970     -5927.7702538023 -5.84E-05
    11 OT DIIS     0.15E+00   16.5     0.00000551     -5927.7702921774 -3.84E-05
    12 OT DIIS     0.15E+00   16.5     0.00000527     -5927.7703509648 -5.88E-05
    13 OT DIIS     0.15E+00   16.4     0.00000602     -5927.7703726949 -2.17E-05
    14 OT DIIS     0.15E+00   16.4     0.00000464     -5927.7704007751 -2.81E-05
    15 OT DIIS     0.15E+00   16.4     0.00000456     -5927.7704222558 -2.15E-05
    16 OT DIIS     0.15E+00   16.4     0.00000327     -5927.7704425829 -2.03E-05
    17 OT DIIS     0.15E+00   16.4     0.00000357     -5927.7704585873 -1.60E-05
    18 OT DIIS     0.15E+00   16.4     0.00000304     -5927.7704731759 -1.46E-05
    19 OT DIIS     0.15E+00   16.4     0.00000336     -5927.7704857742 -1.26E-05
    20 OT DIIS     0.15E+00   16.4     0.00000256     -5927.7704932255 -7.45E-06
    21 OT DIIS     0.15E+00   16.4     0.00000260     -5927.7705046720 -1.14E-05
    22 OT DIIS     0.15E+00   16.4     0.00000233     -5927.7705107978 -6.13E-06
    23 OT DIIS     0.15E+00   16.4     0.00000196     -5927.7705184370 -7.64E-06
    24 OT DIIS     0.15E+00   16.4     0.00000215     -5927.7705245495 -6.11E-06
    25 OT DIIS     0.15E+00   16.4     0.00000185     -5927.7705307071 -6.16E-06
    26 OT DIIS     0.15E+00   16.4     0.00000192     -5927.7705354703 -4.76E-06
    27 OT DIIS     0.15E+00   16.4     0.00000172     -5927.7705420392 -6.57E-06
    28 OT DIIS     0.15E+00   16.4     0.00000173     -5927.7705469795 -4.94E-06
    29 OT DIIS     0.15E+00   16.4     0.00000148     -5927.7705522408 -5.26E-06
    30 OT DIIS     0.15E+00   16.4     0.00000161     -5927.7705581556 -5.91E-06

  Leaving inner SCF loop after reaching    30 steps.


  Electronic density on regular grids:      -3474.0000000010       -0.0000000010
  Core density on regular grids:             3473.9999999951       -0.0000000049
  Total charge density on r-space grids:       -0.0000000059
  Total charge density g-space grids:          -0.0000000049

  Overlap energy of the core charge distribution:               0.00000032663349
  Self energy of the core charge distribution:             -13965.50565932552126
  Core Hamiltonian energy:                                   3144.15387501453733
  Hartree energy:                                            6203.45515038434496
  Exchange-correlation energy:                              -1307.40470894172768
  Dispersion energy:                                           -2.46921561382382

  Total energy:                                             -5927.77055815555559

  outer SCF iter =    1 RMS gradient =   0.16E-05 energy =      -5927.7705581556

  ----------------------------------- OT ---------------------------------------
  Minimizer      : DIIS                : direct inversion
                                         in the iterative subspace
                                         using   8 DIIS vectors
                                         safer DIIS on
  Preconditioner : FULL_KINETIC        : inversion of T + eS
  Precond_solver : DEFAULT
  stepsize       :    0.15000000                  energy_gap     :    0.00010000
  eps_taylor     :   0.10000E-15                  max_taylor     :             4
  ----------------------------------- OT ---------------------------------------

  Step     Update method      Time    Convergence         Total energy    Change
  ------------------------------------------------------------------------------
     1 OT DIIS     0.15E+00   36.7     0.00000139     -5927.7705628480 -4.69E-06
     2 OT DIIS     0.15E+00   16.2     0.00000412     -5927.7705637536 -9.06E-07
     3 OT DIIS     0.15E+00   16.2     0.00000138     -5927.7705660939 -2.34E-06
     4 OT DIIS     0.15E+00   16.2     0.00000127     -5927.7705670066 -9.13E-07
     5 OT DIIS     0.15E+00   16.3     0.00000134     -5927.7705692640 -2.26E-06
     6 OT DIIS     0.15E+00   16.2     0.00000176     -5927.7705831593 -1.39E-05
     7 OT DIIS     0.15E+00   16.3     0.00000113     -5927.7705886773 -5.52E-06
     8 OT DIIS     0.15E+00   16.3     0.00000102     -5927.7705904958 -1.82E-06
     9 OT DIIS     0.15E+00   16.3     0.00000097     -5927.7705919513 -1.46E-06

  *** SCF run converged in     9 steps ***


  Electronic density on regular grids:      -3474.0000000003       -0.0000000003
  Core density on regular grids:             3473.9999999951       -0.0000000049
  Total charge density on r-space grids:       -0.0000000052
  Total charge density g-space grids:          -0.0000000041

  Overlap energy of the core charge distribution:               0.00000032663349
  Self energy of the core charge distribution:             -13965.50565932552126
  Core Hamiltonian energy:                                   3144.15302367988534
  Hartree energy:                                            6203.45583468569203
  Exchange-correlation energy:                              -1307.40457570413491
  Dispersion energy:                                           -2.46921561382382

  Total energy:                                             -5927.77059195126913

  outer SCF iter =    2 RMS gradient =   0.97E-06 energy =      -5927.7705919513
  outer SCF loop converged in   2 iterations or   39 steps


 ENERGY| Total FORCE_EVAL ( QS ) energy (a.u.):            -5927.770594515738594


 --------  Informations at step =     1 ------------
  Optimization Method        =                 BFGS
  Total Energy               =     -5927.7705945157
  Real energy change         =        -0.0071716283
  Predicted change in energy =        -0.0046564377
  Scaling factor             =         0.0000000000
  Step size                  =         0.1039148353
  Trust radius               =         0.4724315332
  Decrease in energy         =                  YES
  Used time                  =              671.656

  Convergence check :
  Max. step size             =         0.1039148353
  Conv. limit for step size  =         0.0030000000
  Convergence in step size   =                   NO
  RMS step size              =         0.0060265220
  Conv. limit for RMS step   =         0.0015000000
  Convergence in RMS step    =                   NO
  Max. gradient              =         0.0091084293
  Conv. limit for gradients  =         0.0004500000
  Conv. for gradients        =                   NO
  RMS gradient               =         0.0005679974
  Conv. limit for RMS grad.  =         0.0003000000
  Conv. for gradients        =                   NO
 ---------------------------------------------------

 --------------------------
 OPTIMIZATION STEP:      2
 --------------------------

 Number of electrons:                                                       3474
 Number of occupied orbitals:                                               1737
 Number of molecular orbitals:                                              1737

 Number of orbital functions:                                               7524
 Number of independent orbital functions:                                   7524

 Extrapolation method: ASPC


 SCF WAVEFUNCTION OPTIMIZATION

  ----------------------------------- OT ---------------------------------------
  Minimizer      : DIIS                : direct inversion
                                         in the iterative subspace
                                         using   8 DIIS vectors
                                         safer DIIS on
  Preconditioner : FULL_KINETIC        : inversion of T + eS
  Precond_solver : DEFAULT
  stepsize       :    0.15000000                  energy_gap     :    0.00010000
  eps_taylor     :   0.10000E-15                  max_taylor     :             4
  ----------------------------------- OT ---------------------------------------

  Step     Update method      Time    Convergence         Total energy    Change
  ------------------------------------------------------------------------------
     1 OT DIIS     0.15E+00   15.9     0.00002303     -5927.7739074755 -5.93E+03
     2 OT DIIS     0.15E+00   16.4     0.00001665     -5927.7747649350 -8.57E-04
     3 OT DIIS     0.15E+00   16.4     0.00003523     -5927.7752907514 -5.26E-04
     4 OT DIIS     0.15E+00   16.4     0.00001851     -5927.7755570923 -2.66E-04
     5 OT DIIS     0.15E+00   16.4     0.00002042     -5927.7757720550 -2.15E-04
     6 OT DIIS     0.15E+00   16.4     0.00001472     -5927.7759471899 -1.75E-04
     7 OT DIIS     0.15E+00   16.4     0.00001008     -5927.7761148463 -1.68E-04
     8 OT DIIS     0.15E+00   16.4     0.00001180     -5927.7761907247 -7.59E-05
     9 OT DIIS     0.15E+00   16.4     0.00000827     -5927.7762557375 -6.50E-05
    10 OT DIIS     0.15E+00   16.5     0.00000822     -5927.7763038592 -4.81E-05
    11 OT DIIS     0.15E+00   16.5     0.00000500     -5927.7763317264 -2.79E-05
    12 OT DIIS     0.15E+00   16.5     0.00000484     -5927.7763758836 -4.42E-05
    13 OT DIIS     0.15E+00   16.4     0.00000486     -5927.7763974671 -2.16E-05
    14 OT DIIS     0.15E+00   16.4     0.00000420     -5927.7764243405 -2.69E-05
    15 OT DIIS     0.15E+00   16.4     0.00000418     -5927.7764446195 -2.03E-05
    16 OT DIIS     0.15E+00   16.4     0.00000316     -5927.7764660313 -2.14E-05
    17 OT DIIS     0.15E+00   16.4     0.00000359     -5927.7764835545 -1.75E-05
    18 OT DIIS     0.15E+00   16.4     0.00000311     -5927.7764984267 -1.49E-05
    19 OT DIIS     0.15E+00   16.4     0.00000345     -5927.7765131142 -1.47E-05
    20 OT DIIS     0.15E+00   16.4     0.00000235     -5927.7765255274 -1.24E-05
    21 OT DIIS     0.15E+00   16.3     0.00000237     -5927.7765414674 -1.59E-05
    22 OT DIIS     0.15E+00   16.4     0.00000240     -5927.7765502182 -8.75E-06
    23 OT DIIS     0.15E+00   16.4     0.00000209     -5927.7765599171 -9.70E-06
    24 OT DIIS     0.15E+00   16.4     0.00000222     -5927.7765680898 -8.17E-06
    25 OT DIIS     0.15E+00   16.4     0.00000185     -5927.7765764707 -8.38E-06
    26 OT DIIS     0.15E+00   16.4     0.00000201     -5927.7765844588 -7.99E-06
    27 OT DIIS     0.15E+00   16.4     0.00000185     -5927.7765915920 -7.13E-06
    28 OT DIIS     0.15E+00   16.4     0.00000189     -5927.7765985112 -6.92E-06
    29 OT DIIS     0.15E+00   16.5     0.00000156     -5927.7766048196 -6.31E-06
    30 OT DIIS     0.15E+00   16.4     0.00000164     -5927.7766132892 -8.47E-06

  Leaving inner SCF loop after reaching    30 steps.


  Electronic density on regular grids:      -3474.0000000010       -0.0000000010
  Core density on regular grids:             3473.9999999952       -0.0000000048
  Total charge density on r-space grids:       -0.0000000059
  Total charge density g-space grids:          -0.0000000048

  Overlap energy of the core charge distribution:               0.00000032655501
  Self energy of the core charge distribution:             -13965.50565932552126
  Core Hamiltonian energy:                                   3144.07700804327851
  Hartree energy:                                            6203.50559221530057
  Exchange-correlation energy:                              -1307.38457711851652
  Dispersion energy:                                           -2.46897743026149

  Total energy:                                             -5927.77661328916565

  outer SCF iter =    1 RMS gradient =   0.16E-05 energy =      -5927.7766132892

  ----------------------------------- OT ---------------------------------------
  Minimizer      : DIIS                : direct inversion
                                         in the iterative subspace
                                         using   8 DIIS vectors
                                         safer DIIS on
  Preconditioner : FULL_KINETIC        : inversion of T + eS
  Precond_solver : DEFAULT
  stepsize       :    0.15000000                  energy_gap     :    0.00010000
  eps_taylor     :   0.10000E-15                  max_taylor     :             4
  ----------------------------------- OT ---------------------------------------

  Step     Update method      Time    Convergence         Total energy    Change
  ------------------------------------------------------------------------------
     1 OT DIIS     0.15E+00   36.6     0.00000158     -5927.7766188208 -5.53E-06
     2 OT DIIS     0.15E+00   16.1     0.00000591     -5927.7766180866  7.34E-07
     3 OT DIIS     0.15E+00   16.2     0.00000141     -5927.7766225847 -4.50E-06
     4 OT DIIS     0.15E+00   16.2     0.00000137     -5927.7766236842 -1.10E-06
     5 OT DIIS     0.15E+00   16.2     0.00000143     -5927.7766268091 -3.12E-06
     6 OT DIIS     0.15E+00   16.2     0.00000221     -5927.7766425524 -1.57E-05
     7 OT DIIS     0.15E+00   16.2     0.00000116     -5927.7766500312 -7.48E-06
     8 OT DIIS     0.15E+00   16.2     0.00000106     -5927.7766521123 -2.08E-06
     9 OT DIIS     0.15E+00   16.2     0.00000102     -5927.7766538701 -1.76E-06
    10 OT DIIS     0.15E+00   16.4     0.00000098     -5927.7766565774 -2.71E-06

  *** SCF run converged in    10 steps ***


  Electronic density on regular grids:      -3474.0000000005       -0.0000000005
  Core density on regular grids:             3473.9999999952       -0.0000000048
  Total charge density on r-space grids:       -0.0000000053
  Total charge density g-space grids:          -0.0000000042

  Overlap energy of the core charge distribution:               0.00000032655501
  Self energy of the core charge distribution:             -13965.50565932552126
  Core Hamiltonian energy:                                   3144.07600646533365
  Hartree energy:                                            6203.50614598452466
  Exchange-correlation energy:                              -1307.38417259804714
  Dispersion energy:                                           -2.46897743026149

  Total energy:                                             -5927.77665657741545

  outer SCF iter =    2 RMS gradient =   0.98E-06 energy =      -5927.7766565774
  outer SCF loop converged in   2 iterations or   40 steps


 ENERGY| Total FORCE_EVAL ( QS ) energy (a.u.):            -5927.776658632871658


 --------  Informations at step =     2 ------------
  Optimization Method        =                 BFGS
  Total Energy               =     -5927.7766586329
  Real energy change         =        -0.0060641171
  Predicted change in energy =        -0.0043245999
  Scaling factor             =         0.0000000000
  Step size                  =         0.2128342002
  Trust radius               =         0.4724315332
  Decrease in energy         =                  YES
  Used time                  =              688.429

  Convergence check :
  Max. step size             =         0.2128342002
  Conv. limit for step size  =         0.0030000000
  Convergence in step size   =                   NO
  RMS step size              =         0.0102260926
  Conv. limit for RMS step   =         0.0015000000
  Convergence in RMS step    =                   NO
  Max. gradient              =         0.0076492359
  Conv. limit for gradients  =         0.0004500000
  Conv. for gradients        =                   NO
  RMS gradient               =         0.0005684870
  Conv. limit for RMS grad.  =         0.0003000000
  Conv. for gradients        =                   NO
 ---------------------------------------------------

 --------------------------
 OPTIMIZATION STEP:      3
 --------------------------

 Number of electrons:                                                       3474
 Number of occupied orbitals:                                               1737
 Number of molecular orbitals:                                              1737

 Number of orbital functions:                                               7524
 Number of independent orbital functions:                                   7524

 Extrapolation method: ASPC


 SCF WAVEFUNCTION OPTIMIZATION

  ----------------------------------- OT ---------------------------------------
  Minimizer      : DIIS                : direct inversion
                                         in the iterative subspace
                                         using   8 DIIS vectors
                                         safer DIIS on
  Preconditioner : FULL_KINETIC        : inversion of T + eS
  Precond_solver : DEFAULT
  stepsize       :    0.15000000                  energy_gap     :    0.00010000
  eps_taylor     :   0.10000E-15                  max_taylor     :             4
  ----------------------------------- OT ---------------------------------------

  Step     Update method      Time    Convergence         Total energy    Change
  ------------------------------------------------------------------------------
     1 OT DIIS     0.15E+00   15.9     0.00002082     -5927.7807261448 -5.93E+03
     2 OT DIIS     0.15E+00   16.4     0.00001507     -5927.7813586596 -6.33E-04
     3 OT DIIS     0.15E+00   16.4     0.00004837     -5927.7813267616  3.19E-05
     4 OT DIIS     0.15E+00   16.4     0.00001523     -5927.7817205962 -3.94E-04
     5 OT DIIS     0.15E+00   16.4     0.00001706     -5927.7817978189 -7.72E-05
     6 OT DIIS     0.15E+00   16.4     0.00001024     -5927.7818996571 -1.02E-04
     7 OT DIIS     0.15E+00   16.4     0.00001244     -5927.7819630482 -6.34E-05
     8 OT DIIS     0.15E+00   16.4     0.00000685     -5927.7820205967 -5.75E-05
     9 OT DIIS     0.15E+00   16.4     0.00000874     -5927.7820458791 -2.53E-05
    10 OT DIIS     0.15E+00   16.4     0.00000489     -5927.7820707239 -2.48E-05
    11 OT DIIS     0.15E+00   16.4     0.00000319     -5927.7820917469 -2.10E-05
    12 OT DIIS     0.15E+00   16.4     0.00000433     -5927.7821038255 -1.21E-05
    13 OT DIIS     0.15E+00   16.4     0.00000297     -5927.7821137208 -9.90E-06
    14 OT DIIS     0.15E+00   16.4     0.00000325     -5927.7821218900 -8.17E-06
    15 OT DIIS     0.15E+00   16.4     0.00000249     -5927.7821280168 -6.13E-06
    16 OT DIIS     0.15E+00   16.4     0.00000267     -5927.7821340835 -6.07E-06
    17 OT DIIS     0.15E+00   16.4     0.00000222     -5927.7821388567 -4.77E-06
    18 OT DIIS     0.15E+00   16.4     0.00000215     -5927.7821426777 -3.82E-06
    19 OT DIIS     0.15E+00   16.4     0.00000192     -5927.7821465610 -3.88E-06
    20 OT DIIS     0.15E+00   16.4     0.00000172     -5927.7821502667 -3.71E-06
    21 OT DIIS     0.15E+00   16.3     0.00000131     -5927.7821533725 -3.11E-06
    22 OT DIIS     0.15E+00   16.4     0.00000169     -5927.7821565494 -3.18E-06
    23 OT DIIS     0.15E+00   16.4     0.00000134     -5927.7821586191 -2.07E-06
    24 OT DIIS     0.15E+00   16.4     0.00000153     -5927.7821607039 -2.08E-06
    25 OT DIIS     0.15E+00   16.4     0.00000123     -5927.7821624120 -1.71E-06
    26 OT DIIS     0.15E+00   16.4     0.00000143     -5927.7821640097 -1.60E-06
    27 OT DIIS     0.15E+00   16.4     0.00000118     -5927.7821657142 -1.70E-06
    28 OT DIIS     0.15E+00   16.4     0.00000127     -5927.7821667989 -1.08E-06
    29 OT DIIS     0.15E+00   16.4     0.00000117     -5927.7821679708 -1.17E-06
    30 OT DIIS     0.15E+00   16.4     0.00000098     -5927.7821692216 -1.25E-06

  *** SCF run converged in    30 steps ***


  Electronic density on regular grids:      -3474.0000000014       -0.0000000014
  Core density on regular grids:             3473.9999999952       -0.0000000048
  Total charge density on r-space grids:       -0.0000000062
  Total charge density g-space grids:          -0.0000000053

  Overlap energy of the core charge distribution:               0.00000032641580
  Self energy of the core charge distribution:             -13965.50565932552126
  Core Hamiltonian energy:                                   3143.95777213836163
  Hartree energy:                                            6203.58526848417841
  Exchange-correlation energy:                              -1307.35092914056236
  Dispersion energy:                                           -2.46862170448981

  Total energy:                                             -5927.78216922161755

  outer SCF iter =    1 RMS gradient =   0.98E-06 energy =      -5927.7821692216
  outer SCF loop converged in   1 iterations or   30 steps


 ENERGY| Total FORCE_EVAL ( QS ) energy (a.u.):            -5927.782170580548154


 --------  Informations at step =     3 ------------
  Optimization Method        =                 BFGS
  Total Energy               =     -5927.7821705805
  Real energy change         =        -0.0055119477
  Predicted change in energy =        -0.0033108386
  Scaling factor             =         0.0000000000
  Step size                  =         0.2648520466
  Trust radius               =         0.4724315332
  Decrease in energy         =                  YES
  Used time                  =              522.196

  Convergence check :
  Max. step size             =         0.2648520466
  Conv. limit for step size  =         0.0030000000
  Convergence in step size   =                   NO
  RMS step size              =         0.0125111222
  Conv. limit for RMS step   =         0.0015000000
  Convergence in RMS step    =                   NO
  Max. gradient              =         0.0119364531
  Conv. limit for gradients  =         0.0004500000
  Conv. for gradients        =                   NO
  RMS gradient               =         0.0009017050
  Conv. limit for RMS grad.  =         0.0003000000
  Conv. for gradients        =                   NO
 ---------------------------------------------------

 --------------------------
 OPTIMIZATION STEP:      4
 --------------------------

  Step is scaled; Scaling factor =  0.75118

 Number of electrons:                                                       3474
 Number of occupied orbitals:                                               1737
 Number of molecular orbitals:                                              1737

 Number of orbital functions:                                               7524
 Number of independent orbital functions:                                   7524

 Extrapolation method: ASPC


 SCF WAVEFUNCTION OPTIMIZATION

  ----------------------------------- OT ---------------------------------------
  Minimizer      : DIIS                : direct inversion
                                         in the iterative subspace
                                         using   8 DIIS vectors
                                         safer DIIS on
  Preconditioner : FULL_KINETIC        : inversion of T + eS
  Precond_solver : DEFAULT
  stepsize       :    0.15000000                  energy_gap     :    0.00010000
  eps_taylor     :   0.10000E-15                  max_taylor     :             4
  ----------------------------------- OT ---------------------------------------

  Step     Update method      Time    Convergence         Total energy    Change
  ------------------------------------------------------------------------------
     1 OT DIIS     0.15E+00   15.8     0.00003962     -5927.7790977733 -5.93E+03
     2 OT DIIS     0.15E+00   16.3     0.00003435     -5927.7814452196 -2.35E-03
     3 OT DIIS     0.15E+00   16.4     0.00008910     -5927.7813589748  8.62E-05
     4 OT DIIS     0.15E+00   16.4     0.00002898     -5927.7831794464 -1.82E-03
     5 OT DIIS     0.15E+00   16.4     0.00003902     -5927.7835762166 -3.97E-04
     6 OT DIIS     0.15E+00   16.4     0.00001995     -5927.7840888731 -5.13E-04
     7 OT DIIS     0.15E+00   16.4     0.00002165     -5927.7844781074 -3.89E-04
     8 OT DIIS     0.15E+00   16.4     0.00001453     -5927.7847716586 -2.94E-04
     9 OT DIIS     0.15E+00   16.4     0.00001785     -5927.7849672081 -1.96E-04
    10 OT DIIS     0.15E+00   16.4     0.00001400     -5927.7850508720 -8.37E-05
    11 OT DIIS     0.15E+00   16.4     0.00000770     -5927.7851993811 -1.49E-04
    12 OT DIIS     0.15E+00   16.4     0.00001033     -5927.7852659866 -6.66E-05
    13 OT DIIS     0.15E+00   16.4     0.00000553     -5927.7853407718 -7.48E-05
    14 OT DIIS     0.15E+00   16.4     0.00000660     -5927.7853990367 -5.83E-05
    15 OT DIIS     0.15E+00   16.4     0.00000575     -5927.7854329985 -3.40E-05
    16 OT DIIS     0.15E+00   16.4     0.00000484     -5927.7854757596 -4.28E-05
    17 OT DIIS     0.15E+00   16.4     0.00000477     -5927.7855037253 -2.80E-05
    18 OT DIIS     0.15E+00   16.4     0.00000466     -5927.7855324709 -2.87E-05
    19 OT DIIS     0.15E+00   16.4     0.00000457     -5927.7855494293 -1.70E-05
    20 OT DIIS     0.15E+00   16.4     0.00000355     -5927.7855694749 -2.00E-05
    21 OT DIIS     0.15E+00   16.2     0.00000410     -5927.7855862532 -1.68E-05
    22 OT DIIS     0.15E+00   16.4     0.00000269     -5927.7856044781 -1.82E-05
    23 OT DIIS     0.15E+00   16.4     0.00000271     -5927.7856229828 -1.85E-05
    24 OT DIIS     0.15E+00   16.4     0.00000288     -5927.7856345971 -1.16E-05
    25 OT DIIS     0.15E+00   16.4     0.00000240     -5927.7856479811 -1.34E-05
    26 OT DIIS     0.15E+00   16.4     0.00000257     -5927.7856590549 -1.11E-05
    27 OT DIIS     0.15E+00   16.4     0.00000239     -5927.7856704651 -1.14E-05
    28 OT DIIS     0.15E+00   16.4     0.00000232     -5927.7856798131 -9.35E-06
    29 OT DIIS     0.15E+00   16.4     0.00000206     -5927.7856897348 -9.92E-06
    30 OT DIIS     0.15E+00   16.4     0.00000231     -5927.7856995157 -9.78E-06

  Leaving inner SCF loop after reaching    30 steps.


  Electronic density on regular grids:      -3474.0000000037       -0.0000000037
  Core density on regular grids:             3473.9999999952       -0.0000000048
  Total charge density on r-space grids:       -0.0000000086
  Total charge density g-space grids:          -0.0000000075

  Overlap energy of the core charge distribution:               0.00000032618356
  Self energy of the core charge distribution:             -13965.50565932552126
  Core Hamiltonian energy:                                   3143.79771526226341
  Hartree energy:                                            6203.69441736133376
  Exchange-correlation energy:                              -1307.30435284223722
  Dispersion energy:                                           -2.46782029774921

  Total energy:                                             -5927.78569951572808

  outer SCF iter =    1 RMS gradient =   0.23E-05 energy =      -5927.7856995157

  ----------------------------------- OT ---------------------------------------
  Minimizer      : DIIS                : direct inversion
                                         in the iterative subspace
                                         using   8 DIIS vectors
                                         safer DIIS on
  Preconditioner : FULL_KINETIC        : inversion of T + eS
  Precond_solver : DEFAULT
  stepsize       :    0.15000000                  energy_gap     :    0.00010000
  eps_taylor     :   0.10000E-15                  max_taylor     :             4
  ----------------------------------- OT ---------------------------------------

  Step     Update method      Time    Convergence         Total energy    Change
  ------------------------------------------------------------------------------
     1 OT DIIS     0.15E+00   36.5     0.00000175     -5927.7857079164 -8.40E-06
     2 OT DIIS     0.15E+00   16.1     0.00000474     -5927.7857097547 -1.84E-06
     3 OT DIIS     0.15E+00   16.1     0.00000179     -5927.7857129969 -3.24E-06
     4 OT DIIS     0.15E+00   16.1     0.00000153     -5927.7857146476 -1.65E-06
     5 OT DIIS     0.15E+00   16.2     0.00000197     -5927.7857195162 -4.87E-06
     6 OT DIIS     0.15E+00   16.2     0.00000231     -5927.7857391487 -1.96E-05
     7 OT DIIS     0.15E+00   16.2     0.00000121     -5927.7857445856 -5.44E-06
     8 OT DIIS     0.15E+00   16.2     0.00000104     -5927.7857467431 -2.16E-06
     9 OT DIIS     0.15E+00   16.2     0.00000129     -5927.7857491656 -2.42E-06
    10 OT DIIS     0.15E+00   16.2     0.00000096     -5927.7857508421 -1.68E-06

  *** SCF run converged in    10 steps ***


  Electronic density on regular grids:      -3473.9999999988        0.0000000012
  Core density on regular grids:             3473.9999999952       -0.0000000048
  Total charge density on r-space grids:       -0.0000000036
  Total charge density g-space grids:          -0.0000000026

  Overlap energy of the core charge distribution:               0.00000032618356
  Self energy of the core charge distribution:             -13965.50565932552126
  Core Hamiltonian energy:                                   3143.79641027682555
  Hartree energy:                                            6203.69502448390449
  Exchange-correlation energy:                              -1307.30370630573225
  Dispersion energy:                                           -2.46782029774921

  Total energy:                                             -5927.78575084209024

  outer SCF iter =    2 RMS gradient =   0.96E-06 energy =      -5927.7857508421
  outer SCF loop converged in   2 iterations or   40 steps


 ENERGY| Total FORCE_EVAL ( QS ) energy (a.u.):            -5927.785755124600655


 --------  Informations at step =     4 ------------
  Optimization Method        =                 BFGS
  Total Energy               =     -5927.7857551246
  Real energy change         =        -0.0035845441
  Predicted change in energy =        -0.0071594491
  Scaling factor             =         0.7511762498
  Step size                  =         0.4724315332
  Trust radius               =         0.4724315332
  Decrease in energy         =                  YES
  Used time                  =              688.135

  Convergence check :
  Max. step size             =         0.4724315332
  Conv. limit for step size  =         0.0030000000
  Convergence in step size   =                   NO
  RMS step size              =         0.0229274463
  Conv. limit for RMS step   =         0.0015000000
  Convergence in RMS step    =                   NO
  Max. gradient              =         0.0174538222
  Conv. limit for gradients  =         0.0004500000
  Conv. for gradients        =                   NO
  RMS gradient               =         0.0013088931
  Conv. limit for RMS grad.  =         0.0003000000
  Conv. for gradients        =                   NO
 ---------------------------------------------------

 --------------------------
 OPTIMIZATION STEP:      5
 --------------------------

 Number of electrons:                                                       3474
 Number of occupied orbitals:                                               1737
 Number of molecular orbitals:                                              1737

 Number of orbital functions:                                               7524
 Number of independent orbital functions:                                   7524

 Extrapolation method: ASPC


 SCF WAVEFUNCTION OPTIMIZATION

  ----------------------------------- OT ---------------------------------------
  Minimizer      : DIIS                : direct inversion
                                         in the iterative subspace
                                         using   8 DIIS vectors
                                         safer DIIS on
  Preconditioner : FULL_KINETIC        : inversion of T + eS
  Precond_solver : DEFAULT
  stepsize       :    0.15000000                  energy_gap     :    0.00010000
  eps_taylor     :   0.10000E-15                  max_taylor     :             4
  ----------------------------------- OT ---------------------------------------

  Step     Update method      Time    Convergence         Total energy    Change
  ------------------------------------------------------------------------------
     1 OT DIIS     0.15E+00   15.8     0.00014778     -5927.6974486562 -5.93E+03
     2 OT DIIS     0.15E+00   16.3     0.00010937     -5927.7317776054 -3.43E-02
     3 OT DIIS     0.15E+00   16.4     0.00032281     -5927.7396057024 -7.83E-03
     4 OT DIIS     0.15E+00   16.4     0.00009677     -5927.7596390048 -2.00E-02
     5 OT DIIS     0.15E+00   16.8     0.00010064     -5927.7693024496 -9.66E-03
     6 OT DIIS     0.15E+00   16.8     0.00010140     -5927.7740485106 -4.75E-03
     7 OT DIIS     0.15E+00   16.7     0.00007084     -5927.7802432886 -6.19E-03
     8 OT DIIS     0.15E+00   16.8     0.00007362     -5927.7827923315 -2.55E-03
     9 OT DIIS     0.15E+00   16.8     0.00004699     -5927.7857318413 -2.94E-03
    10 OT DIIS     0.15E+00   16.8     0.00004880     -5927.7871193137 -1.39E-03
    11 OT DIIS     0.15E+00   16.7     0.00002817     -5927.7881836699 -1.06E-03
    12 OT DIIS     0.15E+00   16.8     0.00003227     -5927.7891914190 -1.01E-03
    13 OT DIIS     0.15E+00   16.8     0.00002538     -5927.7896464114 -4.55E-04
    14 OT DIIS     0.15E+00   16.8     0.00001948     -5927.7902249008 -5.78E-04
    15 OT DIIS     0.15E+00   16.8     0.00002228     -5927.7905897479 -3.65E-04
    16 OT DIIS     0.15E+00   16.8     0.00001541     -5927.7908926368 -3.03E-04
    17 OT DIIS     0.15E+00   16.8     0.00001565     -5927.7911547408 -2.62E-04
    18 OT DIIS     0.15E+00   16.7     0.00001408     -5927.7913425779 -1.88E-04
    19 OT DIIS     0.15E+00   16.8     0.00001325     -5927.7915059383 -1.63E-04
    20 OT DIIS     0.15E+00   16.8     0.00001085     -5927.7916205530 -1.15E-04
    21 OT DIIS     0.15E+00   16.6     0.00000988     -5927.7917477862 -1.27E-04
    22 OT DIIS     0.15E+00   16.8     0.00000907     -5927.7918246315 -7.68E-05
    23 OT DIIS     0.15E+00   16.8     0.00000709     -5927.7919162685 -9.16E-05
    24 OT DIIS     0.15E+00   16.8     0.00000838     -5927.7919769160 -6.06E-05
    25 OT DIIS     0.15E+00   16.7     0.00000623     -5927.7920312529 -5.43E-05
    26 OT DIIS     0.15E+00   16.8     0.00000618     -5927.7920874302 -5.62E-05
    27 OT DIIS     0.15E+00   16.8     0.00000613     -5927.7921265724 -3.91E-05
    28 OT DIIS     0.15E+00   16.8     0.00000539     -5927.7921703009 -4.37E-05
    29 OT DIIS     0.15E+00   16.8     0.00000536     -5927.7922002247 -2.99E-05
    30 OT DIIS     0.15E+00   16.8     0.00000470     -5927.7922389027 -3.87E-05

  Leaving inner SCF loop after reaching    30 steps.


  Electronic density on regular grids:      -3474.0000000009       -0.0000000009
  Core density on regular grids:             3473.9999999952       -0.0000000048
  Total charge density on r-space grids:       -0.0000000058
  Total charge density g-space grids:          -0.0000000047

  Overlap energy of the core charge distribution:               0.00000032537429
  Self energy of the core charge distribution:             -13965.50565932552126
  Core Hamiltonian energy:                                   3143.84873505057112
  Hartree energy:                                            6203.65693220129833
  Exchange-correlation energy:                              -1307.32432476794474
  Dispersion energy:                                           -2.46792238643009

  Total energy:                                             -5927.79223890265348

  outer SCF iter =    1 RMS gradient =   0.47E-05 energy =      -5927.7922389027

  ----------------------------------- OT ---------------------------------------
  Minimizer      : DIIS                : direct inversion
                                         in the iterative subspace
                                         using   8 DIIS vectors
                                         safer DIIS on
  Preconditioner : FULL_KINETIC        : inversion of T + eS
  Precond_solver : DEFAULT
  stepsize       :    0.15000000                  energy_gap     :    0.00010000
  eps_taylor     :   0.10000E-15                  max_taylor     :             4
  ----------------------------------- OT ---------------------------------------

  Step     Update method      Time    Convergence         Total energy    Change
  ------------------------------------------------------------------------------
     1 OT DIIS     0.15E+00   37.0     0.00000454     -5927.7922653326 -2.64E-05
     2 OT DIIS     0.15E+00   16.1     0.00001841     -5927.7922431841  2.21E-05
     3 OT DIIS     0.15E+00   16.2     0.00000431     -5927.7922893925 -4.62E-05
     4 OT DIIS     0.15E+00   16.2     0.00000346     -5927.7922952080 -5.82E-06
     5 OT DIIS     0.15E+00   16.2     0.00000365     -5927.7923193892 -2.42E-05
     6 OT DIIS     0.15E+00   16.4     0.00000574     -5927.7923722775 -5.29E-05
     7 OT DIIS     0.15E+00   16.4     0.00000234     -5927.7924071977 -3.49E-05
     8 OT DIIS     0.15E+00   16.4     0.00000213     -5927.7924169921 -9.79E-06
     9 OT DIIS     0.15E+00   16.4     0.00000253     -5927.7924232038 -6.21E-06
    10 OT DIIS     0.15E+00   16.4     0.00000181     -5927.7924311177 -7.91E-06
    11 OT DIIS     0.15E+00   16.3     0.00000232     -5927.7924402748 -9.16E-06
    12 OT DIIS     0.15E+00   16.4     0.00000235     -5927.7924615446 -2.13E-05
    13 OT DIIS     0.15E+00   16.4     0.00000253     -5927.7924691827 -7.64E-06
    14 OT DIIS     0.15E+00   16.4     0.00000173     -5927.7924793366 -1.02E-05
    15 OT DIIS     0.15E+00   16.4     0.00000161     -5927.7924875585 -8.22E-06
    16 OT DIIS     0.15E+00   16.4     0.00000156     -5927.7924946360 -7.08E-06
    17 OT DIIS     0.15E+00   16.4     0.00000157     -5927.7924987206 -4.08E-06
    18 OT DIIS     0.15E+00   16.4     0.00000145     -5927.7925065983 -7.88E-06
    19 OT DIIS     0.15E+00   16.4     0.00000166     -5927.7925198953 -1.33E-05
    20 OT DIIS     0.15E+00   16.4     0.00000123     -5927.7925262119 -6.32E-06
    21 OT DIIS     0.15E+00   16.4     0.00000116     -5927.7925347556 -8.54E-06
    22 OT DIIS     0.15E+00   16.4     0.00000131     -5927.7925371711 -2.42E-06
    23 OT DIIS     0.15E+00   16.4     0.00000103     -5927.7925400806 -2.91E-06
    24 OT DIIS     0.15E+00   16.4     0.00000120     -5927.7925436717 -3.59E-06
    25 OT DIIS     0.15E+00   16.4     0.00000114     -5927.7925468827 -3.21E-06
    26 OT DIIS     0.15E+00   16.4     0.00000123     -5927.7925478781 -9.95E-07
    27 OT DIIS     0.15E+00   16.4     0.00000092     -5927.7925493173 -1.44E-06

  *** SCF run converged in    27 steps ***


  Electronic density on regular grids:      -3474.0000000010       -0.0000000010
  Core density on regular grids:             3473.9999999952       -0.0000000048
  Total charge density on r-space grids:       -0.0000000059
  Total charge density g-space grids:          -0.0000000048

  Overlap energy of the core charge distribution:               0.00000032537429
  Self energy of the core charge distribution:             -13965.50565932552126
  Core Hamiltonian energy:                                   3143.85231707458115
  Hartree energy:                                            6203.65432813965162
  Exchange-correlation energy:                              -1307.32561314496479
  Dispersion energy:                                           -2.46792238643009

  Total energy:                                             -5927.79254931731066

  outer SCF iter =    2 RMS gradient =   0.92E-06 energy =      -5927.7925493173
  outer SCF loop converged in   2 iterations or   57 steps


 ENERGY| Total FORCE_EVAL ( QS ) energy (a.u.):            -5927.792550368979391


 --------  Informations at step =     5 ------------
  Optimization Method        =                 BFGS
  Total Energy               =     -5927.7925503690
  Real energy change         =        -0.0067952444
  Predicted change in energy =        -0.0045212995
  Scaling factor             =         0.7511762498
  Step size                  =         0.1075631263
  Trust radius               =         0.4724315332
  Decrease in energy         =                  YES
  Used time                  =              980.612

  Convergence check :
  Max. step size             =         0.1075631263
  Conv. limit for step size  =         0.0030000000
  Convergence in step size   =                   NO
  RMS step size              =         0.0062988365
  Conv. limit for RMS step   =         0.0015000000
  Convergence in RMS step    =                   NO
  Max. gradient              =         0.0145031595
  Conv. limit for gradients  =         0.0004500000
  Conv. for gradients        =                   NO
  RMS gradient               =         0.0008794427
  Conv. limit for RMS grad.  =         0.0003000000
  Conv. for gradients        =                   NO
 ---------------------------------------------------

 --------------------------
 OPTIMIZATION STEP:      6
 --------------------------

 Number of electrons:                                                       3474
 Number of occupied orbitals:                                               1737
 Number of molecular orbitals:                                              1737

 Number of orbital functions:                                               7524
 Number of independent orbital functions:                                   7524

 Extrapolation method: ASPC


 SCF WAVEFUNCTION OPTIMIZATION

  ----------------------------------- OT ---------------------------------------
  Minimizer      : DIIS                : direct inversion
                                         in the iterative subspace
                                         using   8 DIIS vectors
                                         safer DIIS on
  Preconditioner : FULL_KINETIC        : inversion of T + eS
  Precond_solver : DEFAULT
  stepsize       :    0.15000000                  energy_gap     :    0.00010000
  eps_taylor     :   0.10000E-15                  max_taylor     :             4
  ----------------------------------- OT ---------------------------------------

  Step     Update method      Time    Convergence         Total energy    Change
  ------------------------------------------------------------------------------
     1 OT DIIS     0.15E+00   15.9     0.00016887     -5927.6779935915 -5.93E+03
     2 OT DIIS     0.15E+00   16.3     0.00012018     -5927.7225892556 -4.46E-02
     3 OT DIIS     0.15E+00   16.5     0.00024832     -5927.7424360359 -1.98E-02
     4 OT DIIS     0.15E+00   16.5     0.00013778     -5927.7576903828 -1.53E-02
     5 OT DIIS     0.15E+00   16.8     0.00014535     -5927.7683798745 -1.07E-02
     6 OT DIIS     0.15E+00   16.7     0.00009149     -5927.7763107428 -7.93E-03
     7 OT DIIS     0.15E+00   16.7     0.00006580     -5927.7855998533 -9.29E-03
     8 OT DIIS     0.15E+00   16.7     0.00008407     -5927.7894856268 -3.89E-03
     9 OT DIIS     0.15E+00   16.7     0.00005712     -5927.7930756051 -3.59E-03
    10 OT DIIS     0.15E+00   16.7     0.00005796     -5927.7949399975 -1.86E-03
    11 OT DIIS     0.15E+00   16.7     0.00003718     -5927.7964166793 -1.48E-03
    12 OT DIIS     0.15E+00   16.8     0.00003521     -5927.7978792360 -1.46E-03
    13 OT DIIS     0.15E+00   16.8     0.00002659     -5927.7988404810 -9.61E-04
    14 OT DIIS     0.15E+00   16.7     0.00002665     -5927.7998081844 -9.68E-04
    15 OT DIIS     0.15E+00   16.8     0.00002655     -5927.8003782745 -5.70E-04
    16 OT DIIS     0.15E+00   16.7     0.00001753     -5927.8010625442 -6.84E-04
    17 OT DIIS     0.15E+00   16.8     0.00001727     -5927.8016238881 -5.61E-04
    18 OT DIIS     0.15E+00   16.7     0.00001802     -5927.8020100335 -3.86E-04
[...]
 flops     6 x     6 x   448           6727698432       0.0%    100.0%      0.0%
 flops     6 x     9 x    13          35325639648       0.0%    100.0%      0.0%
 flops    13 x     9 x     6          35325639648       0.0%    100.0%      0.0%
 flops     6 x    32 x     6          47329339392       0.0%    100.0%      0.0%
 flops    13 x    32 x    32         195434643456       0.0%    100.0%      0.0%
 flops    13 x     6 x   416         382743044736       0.0%    100.0%      0.0%
 flops     6 x    13 x   416         384537678720       0.0%    100.0%      0.0%
 flops    13 x     6 x   425         391023543300       0.0%    100.0%      0.0%
 flops     6 x    13 x   425         392857003500       0.0%    100.0%      0.0%
 flops    13 x     6 x   448         824369634816       0.0%    100.0%      0.0%
 flops     6 x    13 x   448         828235000320       0.0%    100.0%      0.0%
 flops   416 x   416 x   416        4139067572224     100.0%      0.0%      0.0%
 flops   416 x   416 x   425        4228614707200     100.0%      0.0%      0.0%
 flops   416 x   425 x   416        4228614707200     100.0%      0.0%      0.0%
 flops   425 x   416 x   416        4228614707200     100.0%      0.0%      0.0%
 flops   416 x   425 x   425        4320099160000     100.0%      0.0%      0.0%
 flops   425 x   416 x   425        4320099160000     100.0%      0.0%      0.0%
 flops   425 x   425 x   416        4320099160000     100.0%      0.0%      0.0%
 flops   425 x   425 x   425        4413562843750     100.0%      0.0%      0.0%
 flops    13 x     9 x    13        6123265631028       0.0%    100.0%      0.0%
 flops     6 x    32 x    13        6782522812416       0.0%    100.0%      0.0%
 flops    13 x    32 x     6        6782522812416       0.0%    100.0%      0.0%
 flops   416 x   416 x   448        8914914770944     100.0%      0.0%      0.0%
 flops   416 x   448 x   416        8914914770944     100.0%      0.0%      0.0%
 flops   448 x   416 x   416        8914914770944     100.0%      0.0%      0.0%
 flops   416 x   425 x   448        9107785523200     100.0%      0.0%      0.0%
 flops   416 x   448 x   425        9107785523200     100.0%      0.0%      0.0%
 flops   425 x   416 x   448        9107785523200     100.0%      0.0%      0.0%
 flops   425 x   448 x   416        9107785523200     100.0%      0.0%      0.0%
 flops   448 x   416 x   425        9107785523200     100.0%      0.0%      0.0%
 flops   448 x   425 x   416        9107785523200     100.0%      0.0%      0.0%
 flops   425 x   425 x   448        9304828960000     100.0%      0.0%      0.0%
 flops   425 x   448 x   425        9304828960000     100.0%      0.0%      0.0%
 flops   448 x   425 x   425        9304828960000     100.0%      0.0%      0.0%
 flops   448 x   448 x   416       19201354891264     100.0%      0.0%      0.0%
 flops   416 x   448 x   448       19201354891264     100.0%      0.0%      0.0%
 flops   448 x   416 x   448       19201354891264     100.0%      0.0%      0.0%
 flops   448 x   448 x   425       19616768819200     100.0%      0.0%      0.0%
 flops   425 x   448 x   448       19616768819200     100.0%      0.0%      0.0%
 flops   448 x   425 x   448       19616768819200     100.0%      0.0%      0.0%
 flops   416 x   416 x  1878       23711939297280     100.0%      0.0%      0.0%
 flops   416 x   416 x  1884       23787696291840     100.0%      0.0%      0.0%
 flops   416 x   425 x  1878       24224937984000     100.0%      0.0%      0.0%
 flops   425 x   416 x  1878       24224937984000     100.0%      0.0%      0.0%
 flops   416 x   425 x  1884       24302333952000     100.0%      0.0%      0.0%
 flops   425 x   416 x  1884       24302333952000     100.0%      0.0%      0.0%
 flops   425 x   425 x  1878       24749035200000     100.0%      0.0%      0.0%
 flops   425 x   425 x  1884       24828105600000     100.0%      0.0%      0.0%
 flops  1878 x   416 x   416       29409824710656     100.0%      0.0%      0.0%
 flops  1884 x   416 x   416       29503785811968     100.0%      0.0%      0.0%
 flops  1878 x   416 x   425       30046094956800     100.0%      0.0%      0.0%
 flops  1878 x   425 x   416       30046094956800     100.0%      0.0%      0.0%
 flops  1884 x   416 x   425       30142088870400     100.0%      0.0%      0.0%
 flops  1884 x   425 x   416       30142088870400     100.0%      0.0%      0.0%
 flops  1878 x   425 x   425       30696130665000     100.0%      0.0%      0.0%
 flops  1884 x   425 x   425       30794201370000     100.0%      0.0%      0.0%
 flops   448 x   448 x   448       41356764381184     100.0%      0.0%      0.0%
 flops   416 x   448 x  1878       51071869255680     100.0%      0.0%      0.0%
 flops   448 x   416 x  1878       51071869255680     100.0%      0.0%      0.0%
 flops   416 x   448 x  1884       51235038167040     100.0%      0.0%      0.0%
 flops   448 x   416 x  1884       51235038167040     100.0%      0.0%      0.0%
 flops   425 x   448 x  1878       52176789504000     100.0%      0.0%      0.0%
 flops   448 x   425 x  1878       52176789504000     100.0%      0.0%      0.0%
 flops   425 x   448 x  1884       52343488512000     100.0%      0.0%      0.0%
 flops   448 x   425 x  1884       52343488512000     100.0%      0.0%      0.0%
 flops  1878 x   416 x  1878       56985416616960     100.0%      0.0%      0.0%
 flops  1878 x   416 x  1884       57167478650880     100.0%      0.0%      0.0%
 flops  1884 x   416 x  1878       57167478650880     100.0%      0.0%      0.0%
 flops  1884 x   416 x  1884       57350122352640     100.0%      0.0%      0.0%
 flops  1878 x   425 x  1878       58218274188000     100.0%      0.0%      0.0%
 flops  1878 x   425 x  1884       58404275064000     100.0%      0.0%      0.0%
 flops  1884 x   425 x  1878       58404275064000     100.0%      0.0%      0.0%
 flops  1884 x   425 x  1884       58590870192000     100.0%      0.0%      0.0%
 flops  1878 x   448 x   416       63344237838336     100.0%      0.0%      0.0%
 flops  1878 x   416 x   448       63344237838336     100.0%      0.0%      0.0%
 flops  1884 x   416 x   448       63546615595008     100.0%      0.0%      0.0%
 flops  1884 x   448 x   416       63546615595008     100.0%      0.0%      0.0%
 flops  1878 x   448 x   425       64714666060800     100.0%      0.0%      0.0%
 flops  1878 x   425 x   448       64714666060800     100.0%      0.0%      0.0%
 flops  1884 x   425 x   448       64921422182400     100.0%      0.0%      0.0%
 flops  1884 x   448 x   425       64921422182400     100.0%      0.0%      0.0%
 flops    13 x    13 x   416       66706907791680       0.0%    100.0%      0.0%
 flops    13 x    13 x   425       68150086085250       0.0%    100.0%      0.0%
 flops   448 x   448 x  1878      110000949166080     100.0%      0.0%      0.0%
 flops   448 x   448 x  1884      110352389898240     100.0%      0.0%      0.0%
 flops  1878 x   448 x  1878      122737820405760     100.0%      0.0%      0.0%
 flops  1878 x   448 x  1884      123129954017280     100.0%      0.0%      0.0%
 flops  1884 x   448 x  1878      123129954017280     100.0%      0.0%      0.0%
 flops  1884 x   448 x  1884      123523340451840     100.0%      0.0%      0.0%
 flops  1878 x   448 x   448      136433743036416     100.0%      0.0%      0.0%
 flops  1884 x   448 x   448      136869633589248     100.0%      0.0%      0.0%
 flops    13 x    13 x   448      143676416782080       0.0%    100.0%      0.0%
 flops    13 x    32 x    13     1175667001157376       0.0%    100.0%      0.0%
 flops inhomo. stacks                           0       0.0%      0.0%      0.0%
 flops total                         4.588822E+15      67.8%     32.2%      0.0%
 flops max/rank                    304.213243E+12      66.8%     33.2%      0.0%
 matmuls inhomo. stacks                         0       0.0%      0.0%      0.0%
 matmuls total                       115456232398       0.0%    100.0%      0.0%
 number of processed stacks             124403835       3.8%     96.2%      0.0%
 average stack size                                     1.0     965.0       0.0
 marketing flops                     6.190994E+15
 -------------------------------------------------------------------------------
 # multiplications                          90470
 max memory usage/rank               2.016195E+09
 # max total images/rank                        1
 # max 3D layers                                1
 # MPI messages exchanged                 8685120
 MPI messages size (bytes):
  total size                        47.235740E+12
  min size                           0.000000E+00
  max size                          28.395648E+06
  average size                       5.438698E+06
 MPI breakdown and total messages size (bytes):
             size <=      128               31152                        0
       128 < size <=     8192                   0                        0
      8192 < size <=    32768                   0                        0
     32768 < size <=   131072                2832                313655328
    131072 < size <=  4194304             3845616            5801436690552
   4194304 < size <= 16777216             4382274           31447321026720
  16777216 < size                          423246            9972677588016
 -------------------------------------------------------------------------------

 MEMORY| Estimated peak process memory [MiB]                                1923

 -------------------------------------------------------------------------------
 -                                                                             -
 -                         MESSAGE PASSING PERFORMANCE                         -
 -                                                                             -
 -------------------------------------------------------------------------------

 ROUTINE             CALLS      AVE VOLUME [Bytes]
 MP_Group             3179
 MP_Bcast            52642                   9929.
 MP_Allreduce       633985                    350.
 MP_Sync                 4
 MP_Alltoall        392524               35664074.
 MP_SendRecv         10380                  25792.
 MP_ISendRecv       287550                 730080.
 MP_Wait           4844797
 MP_ISend          1602712                2333885.
 MP_IRecv          1602712                2339012.
 MP_Recv             23664                1377832.
 MP_Memory         3985880
 -------------------------------------------------------------------------------


 -------------------------------------------------------------------------------
 -                                                                             -
 -                           R E F E R E N C E S                               -
 -                                                                             -
 -------------------------------------------------------------------------------
 
 CP2K version 7.0 (Development Version), the CP2K developers group (2018).
 CP2K is freely available from https://www.cp2k.org/ .

 Schuett, Ole; Messmer, Peter; Hutter, Juerg; VandeVondele, Joost. 
 Electronic Structure Calculations on Graphics Processing Units, John Wiley & Sons, Ltd, 173-190 (2016). 
 GPU-Accelerated Sparse Matrix-Matrix Multiplication for Linear Scaling Density Functional Theory.
 http://dx.doi.org/10.1002/9781118670712.ch8


 Borstnik, U; VandeVondele, J; Weber, V; Hutter, J. 
 PARALLEL COMPUTING, 40 (5-6), 47-58 (2014). 
 Sparse matrix multiplication: The distributed block-compressed sparse
 row library.
 http://dx.doi.org/10.1016/j.parco.2014.03.012


 Hutter, J; Iannuzzi, M; Schiffmann, F; VandeVondele, J. 
 WILEY INTERDISCIPLINARY REVIEWS-COMPUTATIONAL MOLECULAR SCIENCE, 4 (1), 15-25 (2014). 
 CP2K: atomistic simulations of condensed matter systems.
 http://dx.doi.org/10.1002/wcms.1159


 Grimme, S; Ehrlich, S; Goerigk, L. 
 JOURNAL OF COMPUTATIONAL CHEMISTRY, 32, 1456 (2011). 
 Effect of the damping function in dispersion corrected density functional theory.
 http://dx.doi.org/10.1002/jcc.21759


 Grimme, S; Antony, J; Ehrlich, S; Krieg, H. 
 JOURNAL OF CHEMICAL PHYSICS, 132 (15), 154104 (2010). 
 A consistent and accurate ab initio parametrization of density
 functional dispersion correction (DFT-D) for the 94 elements H-Pu.
 http://dx.doi.org/10.1063/1.3382344


 VandeVondele, J; Hutter, J. 
 JOURNAL OF CHEMICAL PHYSICS, 127 (11), 114105 (2007). 
 Gaussian basis sets for accurate calculations on molecular systems in
 gas and condensed phases.
 http://dx.doi.org/10.1063/1.2770708


 Krack, M. 
 THEORETICAL CHEMISTRY ACCOUNTS, 114 (1-3), 145-152 (2005). 
 Pseudopotentials for H to Kr optimized for gradient-corrected
 exchange-correlation functionals.
 http://dx.doi.org/10.1007/s00214-005-0655-y


 VandeVondele, J; Krack, M; Mohamed, F; Parrinello, M; Chassaing, T;
 Hutter, J. COMPUTER PHYSICS COMMUNICATIONS, 167 (2), 103-128 (2005). 
 QUICKSTEP: Fast and accurate density functional calculations using a
 mixed Gaussian and plane waves approach.
 http://dx.doi.org/10.1016/j.cpc.2004.12.014


 Frigo, M; Johnson, SG. 
 PROCEEDINGS OF THE IEEE, 93 (2), 216-231 (2005). 
 The design and implementation of FFTW3.
 http://dx.doi.org/10.1109/JPROC.2004.840301


 Kolafa, J. 
 JOURNAL OF COMPUTATIONAL CHEMISTRY, 25 (3), 335-342 (2004). 
 Time-reversible always stable predictor-corrector method for molecular dynamics of polarizable molecules.
 http://dx.doi.org/10.1002/jcc.10385


 VandeVondele, J; Hutter, J. 
 JOURNAL OF CHEMICAL PHYSICS, 118 (10), 4365-4369 (2003). 
 An efficient orbital transformation method for electronic structure
 calculations.
 http://dx.doi.org/10.1063/1.1543154


 Hartwigsen, C; Goedecker, S; Hutter, J. 
 PHYSICAL REVIEW B, 58 (7), 3641-3662 (1998). 
 Relativistic separable dual-space Gaussian pseudopotentials from H to Rn.
 http://dx.doi.org/10.1103/PhysRevB.58.3641


 Lippert, G; Hutter, J; Parrinello, M. 
 MOLECULAR PHYSICS, 92 (3), 477-487 (1997). 
 A hybrid Gaussian and plane wave density functional scheme.
 http://dx.doi.org/10.1080/002689797170220


 Perdew, JP; Burke, K; Ernzerhof, M. 
 PHYSICAL REVIEW LETTERS, 77 (18), 3865-3868 (1996). 
 Generalized gradient approximation made simple.
 http://dx.doi.org/10.1103/PhysRevLett.77.3865


 Goedecker, S; Teter, M; Hutter, J. 
 PHYSICAL REVIEW B, 54 (3), 1703-1710 (1996). 
 Separable dual-space Gaussian pseudopotentials.
 http://dx.doi.org/10.1103/PhysRevB.54.1703


 -------------------------------------------------------------------------------
 -                                                                             -
 -                                T I M I N G                                  -
 -                                                                             -
 -------------------------------------------------------------------------------
 SUBROUTINE                       CALLS  ASD         SELF TIME        TOTAL TIME
                                MAXIMUM       AVERAGE  MAXIMUM  AVERAGE  MAXIMUM
 CP2K                                 1  1.0     0.08     0.10 81657.44 81657.66
 cp_geo_opt                           1  2.0     0.00     0.00 81655.50 81655.73
 geoopt_bfgs                          1  3.0     0.22     0.39 81655.50 81655.72
 cp_eval_at                         174  4.0     0.02     0.06 81558.66 81558.90
 qs_forces                          173  5.0     0.04     0.04 81365.17 81365.39
 qs_energies                        174  6.0     0.01     0.03 79015.28 79020.31
 scf_env_do_scf                     174  7.0     0.02     0.08 77026.87 77027.24
 scf_env_do_scf_inner_loop         4619  8.0     0.20     1.02 73749.17 73937.97
 rebuild_ks_matrix                 4792  9.9     0.02     0.02 47506.33 47693.78
 qs_ks_build_kohn_sham_matrix      4792 10.9     0.61     0.68 47506.31 47693.76
 qs_ks_update_qs_env               4855  9.0     0.05     0.05 45630.41 45810.99
 pw_transfer                      91227 13.6     9.01    10.23 31588.87 31767.41
 fft_wrap_pw1pw2                  81643 14.6     1.05     1.15 31296.37 31474.41
 fft_wrap_pw1pw2_150              52888 15.7  2302.75  2370.74 30118.54 30320.89
 qs_vxc_create                     4792 11.9     0.11     0.12 27290.91 27334.92
 xc_vxc_pw_create                  4792 12.9   333.90   348.45 27290.80 27334.80
 fft3d_ps                         81643 16.6 13022.56 13422.13 23287.37 23733.19
 dbcsr_multiply_generic           90470 14.0     6.63     7.06 16680.73 16881.75
 qs_rho_update_rho                 4793  9.0     0.03     0.05 16451.36 16658.70
 calculate_rho_elec                4793 10.0  8488.80  8623.31 16451.33 16658.67
 xc_rho_set_and_dset_create        4792 13.9   119.98   123.14 15086.42 15220.17
 qs_scf_new_mos                    4619  9.0     0.04     0.05 14504.01 14795.19
 qs_scf_loop_do_ot                 4619 10.0     0.03     0.04 14503.96 14795.15
 multiply_cannon                  90470 15.0    12.21    14.47 13926.46 14533.71
 sum_up_and_integrate              4792 11.9    69.95    71.91 13748.03 13751.90
 integrate_v_rspace                4792 12.9  8748.47  8838.41 13678.08 13683.58
 ot_scf_mini                       4619 11.0     0.22     0.25 12921.82 13181.94
 multiply_cannon_multrec         361880 16.0 11836.66 12601.94 11838.03 12603.24
 ot_mini                           4619 12.0     0.02     0.02  8125.80  8415.99
 density_rs2pw                     4793 11.0     0.24     0.27  7369.96  7599.92
 x_to_yz                          43129 18.1  4249.50  4341.00  5950.60  6191.26
 qs_ot_get_derivative              4619 13.0     0.04     0.05  5197.60  5459.18
 xc_functional_eval                4792 14.9     0.06     0.07  5254.71  5381.22
 pbe_lda_eval                      4792 15.9  5254.66  5381.16  5254.66  5381.16
 yz_to_x                          38514 17.1  2536.25  2615.72  4312.62  4758.61
 potential_pw2rs                   4792 13.9     9.81    10.26  4620.84  4625.76
 mp_alltoall_z22v                 81643 18.6  3477.47  4312.76  3477.47  4312.76
 qs_ot_get_derivative_taylor       3978 14.0     0.16     0.19  2953.45  3177.38
 pw_gather_p                      38514 16.1  2862.52  3166.06  2862.52  3166.06
 init_scf_loop                      236  8.0     0.01     0.01  3084.57  3084.77
 pw_scatter_p                     43129 17.1  2763.33  2919.02  2763.33  2919.02
 ot_diis_step                      4619 13.0     0.26     0.28  2910.78  2910.80
 rs_pw_transfer                   38687 13.4     0.81     0.92  2519.86  2778.47
 apply_preconditioner_dbcsr        4855 14.0     0.01     0.01  2625.28  2711.31
 apply_single                      4855 15.0     0.02     0.02  2625.27  2711.30
 mp_waitall_1                   4688661 17.6  1993.47  2256.22  1993.47  2256.22
 qs_ks_update_qs_env_forces         173  6.0     0.00     0.00  1906.29  1913.11
 make_m2s                        180940 15.0     5.15     5.79  1722.36  1842.50
 calculate_dm_sparse               4793 11.0     0.03     0.03  1646.36  1804.28
 multiply_cannon_metrocomm1      361880 16.0     1.20     1.26  1110.73  1640.86
 -------------------------------------------------------------------------------

 The number of warnings for this run is : 1
 
 -------------------------------------------------------------------------------
  **** **** ******  **  PROGRAM ENDED AT                 2023-06-08 13:35:22.991
 ***** ** ***  *** **   PROGRAM RAN ON                                sebnode042
 **    ****   ******    PROGRAM RAN BY                                    luehrs
 ***** **    ** ** **   PROGRAM PROCESS ID                               1221387
  **** **  *******  **  PROGRAM STOPPED IN /home/luehrs/PhD/Li-S_paper/Li-S-Surf
                                           ace_Reaction/Third_Lithiation_of_S8_S
                                           urface/Third_Lithiation_around_S8/Thi
                                           rd_Lithiation_L3/Third_Lithiation_par
                                           allel/1.S8_p
