 DBCSR| Multiplication driver                                               XSMM
 DBCSR| Multrec recursion limit                                              512
 DBCSR| Multiplication stack size                                           1000
 DBCSR| Maximum elements for images                                    UNLIMITED
 DBCSR| Multiplicative factor virtual images                                   1
 DBCSR| Multiplication size stacks                                             3
 DBCSR| Number of 3D layers                                               SINGLE
 DBCSR| Use MPI memory allocation                                              T
 DBCSR| Use RMA algorithm                                                      F
 DBCSR| Use Communication thread                                               T
 DBCSR| Communication thread load                                             87


  **** **** ******  **  PROGRAM STARTED AT               2023-10-13 17:23:18.386
 ***** ** ***  *** **   PROGRAM STARTED ON                            sebnode129
 **    ****   ******    PROGRAM STARTED BY                                luehrs
 ***** **    ** ** **   PROGRAM PROCESS ID                               2499395
  **** **  *******  **  PROGRAM STARTED IN /home/luehrs/PhD/Li-S_paper/Li-S-Surf
                                           ace_Reaction/Third_Lithiation_of_S8_S
                                           urface/Third_Lithiation_around_S8/Thi
                                           rd_Lithiation_L1/Third_Lithiation_par
                                           allel/3.S8_p

 CP2K| version string:                    CP2K version 7.0 (Development Version)
 CP2K| source code revision number:                                             
 CP2K| cp2kflags: libint fftw3 libxc parallel mpi3 scalapack xsmm libderiv_max_a
 CP2K|            m1=8 libint_max_am=9 max_contr=4
 CP2K| is freely available from                            https://www.cp2k.org/
 CP2K| Program compiled at                         Sun Jun 24 14:37:16 CEST 2018
 CP2K| Program compiled on                                            sebstorage
 CP2K| Program compiled for                                Linux-x86-64-gfortran
 CP2K| Data directory path    /home/brehm/Software_Batchnode/2018/Source/cp2k_18
 CP2K| Input file name                                                input3.inp

 GLOBAL| Force Environment number                                              1
 GLOBAL| Basis set file name                                      ./BASIS_MOLOPT
 GLOBAL| Potential file name                                    ./GTH_POTENTIALS
 GLOBAL| MM Potential file name                                     MM_POTENTIAL
 GLOBAL| Coordinate file name              ./Third_lithiation_S8_3.p_relaxed.xyz
 GLOBAL| Method name                                                        CP2K
 GLOBAL| Project name                                                   Li_react
 GLOBAL| Preferred FFT library                                             FFTW3
 GLOBAL| Preferred diagonalization lib.                                       SL
 GLOBAL| Run type                                                        GEO_OPT
 GLOBAL| All-to-all communication in single precision                          F
 GLOBAL| FFTs using library dependent lengths                                  F
 GLOBAL| Global print level                                                  LOW
 GLOBAL| Total number of message passing processes                            16
 GLOBAL| Number of threads for this process                                    1
 GLOBAL| This output is from process                                           0
 GLOBAL| CPU model name :  AMD EPYC 7513 32-Core Processor

 MEMORY| system memory details [Kb]
 MEMORY|                        rank 0           min           max       average
 MEMORY| MemTotal            131916392     131916392     131916392     131916392
 MEMORY| MemFree             121811324     121811324     121811324     121811324
 MEMORY| Buffers                260684        260684        260684        260684
 MEMORY| Cached                2770728       2770724       2770728       2770724
 MEMORY| Slab                  2428996       2428996       2428996       2428996
 MEMORY| SReclaimable           532964        532964        532964        532964
 MEMORY| MemLikelyFree       125375700     125375696     125375700     125375696


 GENERATE|  Preliminary Number of Bonds generated:                             0
 GENERATE|  Achieved consistency in connectivity generation.

 *******************************************************************************
 *******************************************************************************
 **                                                                           **
 **     #####                         ##              ##                      **
 **    ##   ##            ##          ##              ##                      **
 **   ##     ##                       ##            ######                    **
 **   ##     ##  ##   ##  ##   #####  ##  ##   ####   ##    #####    #####    **
 **   ##     ##  ##   ##  ##  ##      ## ##   ##      ##   ##   ##  ##   ##   **
 **   ##  ## ##  ##   ##  ##  ##      ####     ###    ##   ######   ######    **
 **    ##  ###   ##   ##  ##  ##      ## ##      ##   ##   ##       ##        **
 **     #######   #####   ##   #####  ##  ##  ####    ##    #####   ##        **
 **           ##                                                    ##        **
 **                                                                           **
 **                                                ... make the atoms dance   **
 **                                                                           **
 **            Copyright (C) by CP2K developers group (2000 - 2018)           **
 **                                                                           **
 *******************************************************************************


 TOTAL NUMBERS AND MAXIMUM NUMBERS

  Total number of            - Atomic kinds:                                   2
                             - Atoms:                                        582
                             - Shell sets:                                   582
                             - Shells:                                      2904
                             - Primitive Cartesian functions:               3486
                             - Cartesian basis functions:                   8100
                             - Spherical basis functions:                   7524

  Maximum angular momentum of- Orbital basis functions:                        2
                             - Local part of the GTH pseudopotential:          6
                             - Non-local part of the GTH pseudopotential:      2


 SCF PARAMETERS         Density guess:                                   RESTART
                        --------------------------------------------------------
                        max_scf:                                              30
                        max_scf_history:                                       0
                        max_diis:                                              4
                        --------------------------------------------------------
                        eps_scf:                                        1.00E-06
                        eps_scf_history:                                0.00E+00
                        eps_diis:                                       1.00E-01
                        eps_eigval:                                     1.00E-05
                        --------------------------------------------------------
                        level_shift [a.u.]:                                 0.00
                        --------------------------------------------------------
                        Outer loop SCF in use 
                        No variables optimised in outer loop
                        eps_scf                                         1.00E-06
                        max_scf                                               25
                        DIIS optimization
                        DIIS buffer length                                     3
                        step_size                                       5.00E-01

 BFGS| Use rational function optimization for step estimation:                NO
 BFGS| Use model Hessian for initial guess:                                  YES
 BFGS| Restart Hessian:                                                       NO
 BFGS| Trust radius:                                                       0.472

 *******************************************************************************
 ***                     STARTING GEOMETRY OPTIMIZATION                      ***
 ***                                   BFGS                                  ***
 *******************************************************************************

 Number of electrons:                                                       3474
 Number of occupied orbitals:                                               1737
 Number of molecular orbitals:                                              1737

 Number of orbital functions:                                               7524
 Number of independent orbital functions:                                   7524

 Extrapolation method: initial_guess

 *** WARNING in qs_initial_guess.F:263 :: User requested to restart the   ***
 *** wavefunction from the file named: Li_react-RESTART.wfn. This file    ***
 *** does not exist. Please check the existence of the file or change     ***
 *** properly the value of the keyword WFN_RESTART_FILE_NAME. Calculation ***
 *** continues using ATOMIC GUESS.                                        ***



 SCF WAVEFUNCTION OPTIMIZATION

  ----------------------------------- OT ---------------------------------------
  Minimizer      : DIIS                : direct inversion
                                         in the iterative subspace
                                         using   8 DIIS vectors
                                         safer DIIS on
  Preconditioner : FULL_KINETIC        : inversion of T + eS
  Precond_solver : DEFAULT
  stepsize       :    0.15000000                  energy_gap     :    0.00010000
  eps_taylor     :   0.10000E-15                  max_taylor     :             4
  ----------------------------------- OT ---------------------------------------

  Step     Update method      Time    Convergence         Total energy    Change
  ------------------------------------------------------------------------------
     1 OT DIIS     0.15E+00   22.6     0.00644733     -5756.6308900761 -5.76E+03
     2 OT DIIS     0.15E+00   22.4     0.02593799     -5752.4345134437  4.20E+00
     3 OT DIIS     0.15E+00   22.9     0.00618218     -5810.5146249585 -5.81E+01
     4 OT DIIS     0.15E+00   22.6     0.00663264     -5830.3967623950 -1.99E+01
     5 OT DIIS     0.15E+00   22.4     0.00551219     -5846.4310194435 -1.60E+01
     6 OT DIIS     0.15E+00   22.2     0.00407234     -5858.0579385631 -1.16E+01
     7 OT DIIS     0.15E+00   22.3     0.00269661     -5873.8950214037 -1.58E+01
     8 OT DIIS     0.15E+00   22.3     0.00305678     -5883.6217303200 -9.73E+00
     9 OT DIIS     0.15E+00   22.3     0.00193504     -5891.6831828996 -8.06E+00
    10 OT DIIS     0.15E+00   22.4     0.00190129     -5897.3274402994 -5.64E+00
    11 OT DIIS     0.15E+00   22.3     0.00180071     -5900.9717127272 -3.64E+00
    12 OT DIIS     0.15E+00   22.0     0.00174993     -5904.2587656763 -3.29E+00
    13 OT DIIS     0.15E+00   21.6     0.00133344     -5906.9201227106 -2.66E+00
    14 OT DIIS     0.15E+00   21.2     0.00110515     -5910.0916239257 -3.17E+00
    15 OT DIIS     0.15E+00   21.0     0.00100855     -5912.8345091078 -2.74E+00
    16 OT DIIS     0.15E+00   21.4     0.00092929     -5914.9148353686 -2.08E+00
    17 OT DIIS     0.15E+00   21.3     0.00102085     -5916.4332506688 -1.52E+00
    18 OT DIIS     0.15E+00   21.2     0.00074931     -5917.9814702401 -1.55E+00
    19 OT DIIS     0.15E+00   21.1     0.00079237     -5919.2049008158 -1.22E+00
    20 OT DIIS     0.15E+00   20.9     0.00074350     -5920.0450612872 -8.40E-01
    21 OT DIIS     0.15E+00   19.1     0.00063969     -5921.0599158020 -1.01E+00
    22 OT DIIS     0.15E+00   20.3     0.00062259     -5921.7534499709 -6.94E-01
    23 OT DIIS     0.15E+00   20.5     0.00059301     -5922.4432892300 -6.90E-01
    24 OT DIIS     0.15E+00   20.1     0.00051513     -5923.1077900723 -6.65E-01
    25 OT DIIS     0.15E+00   20.0     0.00042862     -5923.5458481057 -4.38E-01
    26 OT DIIS     0.15E+00   20.6     0.00046612     -5924.0047905674 -4.59E-01
    27 OT DIIS     0.15E+00   20.9     0.00037615     -5924.2619679444 -2.57E-01
    28 OT DIIS     0.15E+00   21.3     0.00037546     -5924.6253466516 -3.63E-01
    29 OT DIIS     0.15E+00   21.2     0.00037240     -5924.8577785944 -2.32E-01
    30 OT DIIS     0.15E+00   20.8     0.00034188     -5925.1775163571 -3.20E-01

  Leaving inner SCF loop after reaching    30 steps.


  Electronic density on regular grids:      -3474.0000000004       -0.0000000004
  Core density on regular grids:             3473.9999999952       -0.0000000048
  Total charge density on r-space grids:       -0.0000000052
  Total charge density g-space grids:          -0.0000000043

  Overlap energy of the core charge distribution:               0.00000032685014
  Self energy of the core charge distribution:             -13965.50565932552126
  Core Hamiltonian energy:                                   3147.40299978838902
  Hartree energy:                                            6202.41144079581318
  Exchange-correlation energy:                              -1307.01849011009290
  Dispersion energy:                                           -2.46780783256946

  Total energy:                                             -5925.17751635713012

  outer SCF iter =    1 RMS gradient =   0.34E-03 energy =      -5925.1775163571

  ----------------------------------- OT ---------------------------------------
  Minimizer      : DIIS                : direct inversion
                                         in the iterative subspace
                                         using   8 DIIS vectors
                                         safer DIIS on
  Preconditioner : FULL_KINETIC        : inversion of T + eS
  Precond_solver : DEFAULT
  stepsize       :    0.15000000                  energy_gap     :    0.00010000
  eps_taylor     :   0.10000E-15                  max_taylor     :             4
  ----------------------------------- OT ---------------------------------------

  Step     Update method      Time    Convergence         Total energy    Change
  ------------------------------------------------------------------------------
     1 OT DIIS     0.15E+00   46.0     0.00043212     -5925.3291287887 -1.52E-01
     2 OT DIIS     0.15E+00   20.7     0.00118649     -5925.3927807717 -6.37E-02
     3 OT DIIS     0.15E+00   20.8     0.00041653     -5925.6120460246 -2.19E-01
     4 OT DIIS     0.15E+00   21.3     0.00055929     -5925.6800774023 -6.80E-02
     5 OT DIIS     0.15E+00   21.3     0.00036748     -5925.9451300542 -2.65E-01
     6 OT DIIS     0.15E+00   21.8     0.00035220     -5926.1088258855 -1.64E-01
     7 OT DIIS     0.15E+00   21.5     0.00027474     -5926.2342282604 -1.25E-01
     8 OT DIIS     0.15E+00   21.5     0.00038066     -5926.4207399521 -1.87E-01
     9 OT DIIS     0.15E+00   21.3     0.00027805     -5926.5991601643 -1.78E-01
    10 OT DIIS     0.15E+00   21.4     0.00026487     -5926.6483187102 -4.92E-02
    11 OT DIIS     0.15E+00   20.6     0.00028890     -5926.8497004103 -2.01E-01
    12 OT DIIS     0.15E+00   20.8     0.00025500     -5926.9815419510 -1.32E-01
    13 OT DIIS     0.15E+00   21.1     0.00025952     -5927.0479276148 -6.64E-02
    14 OT DIIS     0.15E+00   21.4     0.00023689     -5927.1503759438 -1.02E-01
    15 OT DIIS     0.15E+00   21.2     0.00018888     -5927.2279582632 -7.76E-02
    16 OT DIIS     0.15E+00   21.4     0.00017780     -5927.2808418253 -5.29E-02
    17 OT DIIS     0.15E+00   21.2     0.00016845     -5927.3278560439 -4.70E-02
    18 OT DIIS     0.15E+00   20.7     0.00017312     -5927.3808470223 -5.30E-02
    19 OT DIIS     0.15E+00   20.1     0.00013823     -5927.3952800739 -1.44E-02
    20 OT DIIS     0.15E+00   19.8     0.00013428     -5927.4313967240 -3.61E-02
    21 OT DIIS     0.15E+00   20.9     0.00012158     -5927.4540579944 -2.27E-02
    22 OT DIIS     0.15E+00   21.0     0.00012335     -5927.4686525982 -1.46E-02
    23 OT DIIS     0.15E+00   21.2     0.00011220     -5927.4870421299 -1.84E-02
    24 OT DIIS     0.15E+00   21.1     0.00009864     -5927.5065152478 -1.95E-02
    25 OT DIIS     0.15E+00   21.4     0.00009739     -5927.5204070005 -1.39E-02
    26 OT DIIS     0.15E+00   21.4     0.00009410     -5927.5369199680 -1.65E-02
    27 OT DIIS     0.15E+00   22.2     0.00009400     -5927.5534519878 -1.65E-02
    28 OT DIIS     0.15E+00   21.7     0.00008862     -5927.5612429225 -7.79E-03
    29 OT DIIS     0.15E+00   21.7     0.00008246     -5927.5762933189 -1.51E-02
    30 OT DIIS     0.15E+00   21.5     0.00008071     -5927.5911855878 -1.49E-02

  Leaving inner SCF loop after reaching    30 steps.


  Electronic density on regular grids:      -3474.0000000005       -0.0000000005
  Core density on regular grids:             3473.9999999952       -0.0000000048
  Total charge density on r-space grids:       -0.0000000053
  Total charge density g-space grids:          -0.0000000043

  Overlap energy of the core charge distribution:               0.00000032685014
  Self energy of the core charge distribution:             -13965.50565932552126
  Core Hamiltonian energy:                                   3144.32558171375331
  Hartree energy:                                            6203.41200009872955
  Exchange-correlation energy:                              -1307.35530056906032
  Dispersion energy:                                           -2.46780783256946

  Total energy:                                             -5927.59118558781847

  outer SCF iter =    2 RMS gradient =   0.81E-04 energy =      -5927.5911855878

  ----------------------------------- OT ---------------------------------------
  Minimizer      : DIIS                : direct inversion
                                         in the iterative subspace
                                         using   8 DIIS vectors
                                         safer DIIS on
  Preconditioner : FULL_KINETIC        : inversion of T + eS
  Precond_solver : DEFAULT
  stepsize       :    0.15000000                  energy_gap     :    0.00010000
  eps_taylor     :   0.10000E-15                  max_taylor     :             4
  ----------------------------------- OT ---------------------------------------

  Step     Update method      Time    Convergence         Total energy    Change
  ------------------------------------------------------------------------------
     1 OT DIIS     0.15E+00   48.8     0.00009465     -5927.5999522330 -8.77E-03
     2 OT DIIS     0.15E+00   19.3     0.00038086     -5927.5964939907  3.46E-03
     3 OT DIIS     0.15E+00   20.5     0.00008079     -5927.6134715618 -1.70E-02
     4 OT DIIS     0.15E+00   21.0     0.00009271     -5927.6190337987 -5.56E-03
     5 OT DIIS     0.15E+00   20.9     0.00008997     -5927.6335559452 -1.45E-02
     6 OT DIIS     0.15E+00   21.3     0.00007686     -5927.6462288766 -1.27E-02
     7 OT DIIS     0.15E+00   21.1     0.00007461     -5927.6522964816 -6.07E-03
     8 OT DIIS     0.15E+00   20.7     0.00008208     -5927.6648840348 -1.26E-02
     9 OT SD       0.15E+00   20.8     0.00007437     -5927.6947988512 -2.99E-02
    10 OT DIIS     0.15E+00   20.8     0.00025594     -5927.6910658693  3.73E-03
    11 OT DIIS     0.15E+00   20.7     0.00010199     -5927.7216638962 -3.06E-02
    12 OT DIIS     0.15E+00   21.0     0.00007273     -5927.7373885205 -1.57E-02
    13 OT DIIS     0.15E+00   20.4     0.00007067     -5927.7394402105 -2.05E-03
    14 OT DIIS     0.15E+00   19.1     0.00006353     -5927.7400165324 -5.76E-04
    15 OT DIIS     0.15E+00   20.7     0.00005266     -5927.7423667279 -2.35E-03
    16 OT DIIS     0.15E+00   21.2     0.00005148     -5927.7442941562 -1.93E-03
    17 OT DIIS     0.15E+00   20.9     0.00003783     -5927.7448179293 -5.24E-04
    18 OT DIIS     0.15E+00   20.6     0.00003775     -5927.7471891941 -2.37E-03
    19 OT DIIS     0.15E+00   20.5     0.00002425     -5927.7480356416 -8.46E-04
    20 OT DIIS     0.15E+00   21.4     0.00002941     -5927.7486077763 -5.72E-04
    21 OT DIIS     0.15E+00   21.1     0.00003277     -5927.7488984672 -2.91E-04
    22 OT DIIS     0.15E+00   21.9     0.00002903     -5927.7493417098 -4.43E-04
    23 OT DIIS     0.15E+00   21.9     0.00001974     -5927.7496256811 -2.84E-04
    24 OT DIIS     0.15E+00   21.9     0.00002647     -5927.7499235303 -2.98E-04
    25 OT DIIS     0.15E+00   21.0     0.00002608     -5927.7501987368 -2.75E-04
    26 OT DIIS     0.15E+00   20.9     0.00002261     -5927.7506739485 -4.75E-04
    27 OT DIIS     0.15E+00   20.7     0.00002212     -5927.7506957952 -2.18E-05
    28 OT DIIS     0.15E+00   21.3     0.00002029     -5927.7506196594  7.61E-05
    29 OT DIIS     0.15E+00   21.6     0.00002028     -5927.7512181413 -5.98E-04
    30 OT DIIS     0.15E+00   21.6     0.00002314     -5927.7515251349 -3.07E-04

  Leaving inner SCF loop after reaching    30 steps.


  Electronic density on regular grids:      -3474.0000000004       -0.0000000004
  Core density on regular grids:             3473.9999999952       -0.0000000048
  Total charge density on r-space grids:       -0.0000000052
  Total charge density g-space grids:          -0.0000000043

  Overlap energy of the core charge distribution:               0.00000032685014
  Self energy of the core charge distribution:             -13965.50565932552126
  Core Hamiltonian energy:                                   3144.06564121545216
  Hartree energy:                                            6203.50946514816223
  Exchange-correlation energy:                              -1307.35316466725635
  Dispersion energy:                                           -2.46780783256946

  Total energy:                                             -5927.75152513488229

  outer SCF iter =    3 RMS gradient =   0.23E-04 energy =      -5927.7515251349

  ----------------------------------- OT ---------------------------------------
  Minimizer      : DIIS                : direct inversion
                                         in the iterative subspace
                                         using   8 DIIS vectors
                                         safer DIIS on
  Preconditioner : FULL_KINETIC        : inversion of T + eS
  Precond_solver : DEFAULT
  stepsize       :    0.15000000                  energy_gap     :    0.00010000
  eps_taylor     :   0.10000E-15                  max_taylor     :             4
  ----------------------------------- OT ---------------------------------------

  Step     Update method      Time    Convergence         Total energy    Change
  ------------------------------------------------------------------------------
     1 OT DIIS     0.15E+00   46.9     0.00002517     -5927.7513804951  1.45E-04
     2 OT DIIS     0.15E+00   21.2     0.00016006     -5927.7487572804  2.62E-03
     3 OT DIIS     0.15E+00   20.5     0.00001541     -5927.7517438399 -2.99E-03
     4 OT DIIS     0.15E+00   21.0     0.00001299     -5927.7518305360 -8.67E-05
     5 OT DIIS     0.15E+00   20.6     0.00001538     -5927.7520410807 -2.11E-04
     6 OT DIIS     0.15E+00   20.1     0.00001740     -5927.7526456517 -6.05E-04
     7 OT DIIS     0.15E+00   19.7     0.00001106     -5927.7529361565 -2.91E-04
     8 OT DIIS     0.15E+00   20.0     0.00001074     -5927.7531592812 -2.23E-04
     9 OT DIIS     0.15E+00   19.7     0.00001081     -5927.7538146948 -6.55E-04
    10 OT DIIS     0.15E+00   19.6     0.00001012     -5927.7537961459  1.85E-05
    11 OT DIIS     0.15E+00   19.6     0.00001206     -5927.7541356911 -3.40E-04
    12 OT DIIS     0.15E+00   19.5     0.00000939     -5927.7544104969 -2.75E-04
    13 OT DIIS     0.15E+00   19.7     0.00000771     -5927.7545708404 -1.60E-04
    14 OT DIIS     0.15E+00   20.2     0.00000724     -5927.7546584177 -8.76E-05
    15 OT DIIS     0.15E+00   20.1     0.00000716     -5927.7547939953 -1.36E-04
    16 OT DIIS     0.15E+00   20.5     0.00000654     -5927.7548771762 -8.32E-05
    17 OT DIIS     0.15E+00   21.0     0.00000621     -5927.7549836114 -1.06E-04
    18 OT DIIS     0.15E+00   21.4     0.00000759     -5927.7551611666 -1.78E-04
    19 OT DIIS     0.15E+00   21.7     0.00000601     -5927.7552557327 -9.46E-05
    20 OT DIIS     0.15E+00   21.8     0.00000575     -5927.7554074726 -1.52E-04
    21 OT DIIS     0.15E+00   22.0     0.00000591     -5927.7555349090 -1.27E-04
    22 OT DIIS     0.15E+00   21.7     0.00000534     -5927.7556578923 -1.23E-04
    23 OT DIIS     0.15E+00   21.8     0.00000577     -5927.7557760985 -1.18E-04
    24 OT DIIS     0.15E+00   21.4     0.00000601     -5927.7559440354 -1.68E-04
    25 OT DIIS     0.15E+00   20.9     0.00000573     -5927.7560734360 -1.29E-04
    26 OT DIIS     0.15E+00   20.6     0.00000486     -5927.7561792670 -1.06E-04
    27 OT DIIS     0.15E+00   21.0     0.00000521     -5927.7562996120 -1.20E-04
    28 OT DIIS     0.15E+00   21.2     0.00000451     -5927.7563471836 -4.76E-05
    29 OT DIIS     0.15E+00   21.1     0.00000451     -5927.7564293476 -8.22E-05
    30 OT DIIS     0.15E+00   21.1     0.00000461     -5927.7565183008 -8.90E-05

  Leaving inner SCF loop after reaching    30 steps.


  Electronic density on regular grids:      -3474.0000000005       -0.0000000005
  Core density on regular grids:             3473.9999999952       -0.0000000048
  Total charge density on r-space grids:       -0.0000000053
  Total charge density g-space grids:          -0.0000000043

  Overlap energy of the core charge distribution:               0.00000032685014
  Self energy of the core charge distribution:             -13965.50565932552126
  Core Hamiltonian energy:                                   3144.05405697499646
  Hartree energy:                                            6203.51449512864474
  Exchange-correlation energy:                              -1307.35160357319523
  Dispersion energy:                                           -2.46780783256946

  Total energy:                                             -5927.75651830079460

  outer SCF iter =    4 RMS gradient =   0.46E-05 energy =      -5927.7565183008

  ----------------------------------- OT ---------------------------------------
  Minimizer      : DIIS                : direct inversion
                                         in the iterative subspace
                                         using   8 DIIS vectors
                                         safer DIIS on
  Preconditioner : FULL_KINETIC        : inversion of T + eS
  Precond_solver : DEFAULT
  stepsize       :    0.15000000                  energy_gap     :    0.00010000
  eps_taylor     :   0.10000E-15                  max_taylor     :             4
  ----------------------------------- OT ---------------------------------------

  Step     Update method      Time    Convergence         Total energy    Change
  ------------------------------------------------------------------------------
     1 OT DIIS     0.15E+00   47.6     0.00000444     -5927.7566165572 -9.83E-05
     2 OT DIIS     0.15E+00   21.0     0.00001634     -5927.7566076566  8.90E-06
     3 OT DIIS     0.15E+00   21.3     0.00000472     -5927.7566428478 -3.52E-05
     4 OT DIIS     0.15E+00   20.2     0.00000368     -5927.7566497212 -6.87E-06
     5 OT DIIS     0.15E+00   20.1     0.00000390     -5927.7566649650 -1.52E-05
     6 OT DIIS     0.15E+00   19.8     0.00000420     -5927.7567352898 -7.03E-05
     7 OT DIIS     0.15E+00   20.7     0.00000380     -5927.7567793522 -4.41E-05
     8 OT DIIS     0.15E+00   20.6     0.00000356     -5927.7568034544 -2.41E-05
     9 OT DIIS     0.15E+00   21.0     0.00000269     -5927.7568495633 -4.61E-05
    10 OT DIIS     0.15E+00   20.7     0.00000233     -5927.7568671993 -1.76E-05
    11 OT DIIS     0.15E+00   20.8     0.00000269     -5927.7568815199 -1.43E-05
    12 OT DIIS     0.15E+00   20.7     0.00000254     -5927.7569002840 -1.88E-05
    13 OT DIIS     0.15E+00   20.2     0.00000218     -5927.7569075646 -7.28E-06
    14 OT DIIS     0.15E+00   19.7     0.00000221     -5927.7569149696 -7.40E-06
    15 OT DIIS     0.15E+00   20.1     0.00000200     -5927.7569266431 -1.17E-05
    16 OT DIIS     0.15E+00   20.4     0.00000191     -5927.7569362221 -9.58E-06
    17 OT DIIS     0.15E+00   21.0     0.00000182     -5927.7569439996 -7.78E-06
    18 OT DIIS     0.15E+00   20.8     0.00000182     -5927.7569611724 -1.72E-05
    19 OT DIIS     0.15E+00   20.9     0.00000184     -5927.7569706930 -9.52E-06
    20 OT DIIS     0.15E+00   20.8     0.00000182     -5927.7569813359 -1.06E-05
    21 OT DIIS     0.15E+00   20.7     0.00000180     -5927.7570008522 -1.95E-05
    22 OT DIIS     0.15E+00   20.7     0.00000172     -5927.7570119286 -1.11E-05
    23 OT DIIS     0.15E+00   20.8     0.00000182     -5927.7570245639 -1.26E-05
    24 OT DIIS     0.15E+00   20.4     0.00000177     -5927.7570442906 -1.97E-05
    25 OT DIIS     0.15E+00   20.6     0.00000169     -5927.7570602080 -1.59E-05
    26 OT DIIS     0.15E+00   21.3     0.00000159     -5927.7570752441 -1.50E-05
    27 OT DIIS     0.15E+00   21.0     0.00000157     -5927.7570996419 -2.44E-05
    28 OT DIIS     0.15E+00   20.6     0.00000156     -5927.7571151315 -1.55E-05
    29 OT DIIS     0.15E+00   20.5     0.00000158     -5927.7571279029 -1.28E-05
    30 OT DIIS     0.15E+00   20.8     0.00000156     -5927.7571464134 -1.85E-05

  Leaving inner SCF loop after reaching    30 steps.


  Electronic density on regular grids:      -3474.0000000022       -0.0000000022
  Core density on regular grids:             3473.9999999952       -0.0000000048
  Total charge density on r-space grids:       -0.0000000070
  Total charge density g-space grids:          -0.0000000060

  Overlap energy of the core charge distribution:               0.00000032685014
  Self energy of the core charge distribution:             -13965.50565932552126
  Core Hamiltonian energy:                                   3144.04881369928262
  Hartree energy:                                            6203.51737646572747
  Exchange-correlation energy:                              -1307.34986974717822
  Dispersion energy:                                           -2.46780783256946

  Total energy:                                             -5927.75714641340983

  outer SCF iter =    5 RMS gradient =   0.16E-05 energy =      -5927.7571464134

  ----------------------------------- OT ---------------------------------------
  Minimizer      : DIIS                : direct inversion
                                         in the iterative subspace
                                         using   8 DIIS vectors
                                         safer DIIS on
  Preconditioner : FULL_KINETIC        : inversion of T + eS
  Precond_solver : DEFAULT
  stepsize       :    0.15000000                  energy_gap     :    0.00010000
  eps_taylor     :   0.10000E-15                  max_taylor     :             4
  ----------------------------------- OT ---------------------------------------

  Step     Update method      Time    Convergence         Total energy    Change
  ------------------------------------------------------------------------------
     1 OT DIIS     0.15E+00   46.4     0.00000144     -5927.7571581567 -1.17E-05
     2 OT DIIS     0.15E+00   21.1     0.00000452     -5927.7571586731 -5.16E-07
     3 OT DIIS     0.15E+00   20.6     0.00000140     -5927.7571615490 -2.88E-06
     4 OT DIIS     0.15E+00   20.6     0.00000133     -5927.7571623192 -7.70E-07
     5 OT DIIS     0.15E+00   20.6     0.00000133     -5927.7571658629 -3.54E-06
     6 OT DIIS     0.15E+00   21.3     0.00000131     -5927.7571811655 -1.53E-05
     7 OT DIIS     0.15E+00   21.3     0.00000124     -5927.7571851145 -3.95E-06
     8 OT DIIS     0.15E+00   21.1     0.00000115     -5927.7571887185 -3.60E-06
     9 OT DIIS     0.15E+00   20.8     0.00000105     -5927.7571937867 -5.07E-06
    10 OT DIIS     0.15E+00   20.7     0.00000090     -5927.7571951580 -1.37E-06

  *** SCF run converged in    10 steps ***


  Electronic density on regular grids:      -3473.9999999992        0.0000000008
  Core density on regular grids:             3473.9999999952       -0.0000000048
  Total charge density on r-space grids:       -0.0000000040
  Total charge density g-space grids:          -0.0000000029

  Overlap energy of the core charge distribution:               0.00000032685014
  Self energy of the core charge distribution:             -13965.50565932552126
  Core Hamiltonian energy:                                   3144.04903528874638
  Hartree energy:                                            6203.51729714330759
  Exchange-correlation energy:                              -1307.35006075883575
  Dispersion energy:                                           -2.46780783256946

  Total energy:                                             -5927.75719515802211

  outer SCF iter =    6 RMS gradient =   0.90E-06 energy =      -5927.7571951580
  outer SCF loop converged in   6 iterations or  160 steps


 ENERGY| Total FORCE_EVAL ( QS ) energy (a.u.):            -5927.757198934235930


 --------  Informations at step =     0 ------------
  Optimization Method        =                 BFGS
  Total Energy               =     -5927.7571989342
  Used time                  =             3420.506
 ---------------------------------------------------

 --------------------------
 OPTIMIZATION STEP:      1
 --------------------------

 Number of electrons:                                                       3474
 Number of occupied orbitals:                                               1737
 Number of molecular orbitals:                                              1737

 Number of orbital functions:                                               7524
 Number of independent orbital functions:                                   7524

 Extrapolation method: ASPC


 SCF WAVEFUNCTION OPTIMIZATION

  ----------------------------------- OT ---------------------------------------
  Minimizer      : DIIS                : direct inversion
                                         in the iterative subspace
                                         using   8 DIIS vectors
                                         safer DIIS on
  Preconditioner : FULL_KINETIC        : inversion of T + eS
  Precond_solver : DEFAULT
  stepsize       :    0.15000000                  energy_gap     :    0.00010000
  eps_taylor     :   0.10000E-15                  max_taylor     :             4
  ----------------------------------- OT ---------------------------------------

  Step     Update method      Time    Convergence         Total energy    Change
  ------------------------------------------------------------------------------
     1 OT DIIS     0.15E+00   19.7     0.00002379     -5927.7584389327 -5.93E+03
     2 OT DIIS     0.15E+00   19.8     0.00001643     -5927.7593363627 -8.97E-04
     3 OT DIIS     0.15E+00   21.1     0.00003633     -5927.7598148748 -4.79E-04
     4 OT DIIS     0.15E+00   21.7     0.00001814     -5927.7600723888 -2.58E-04
     5 OT DIIS     0.15E+00   21.0     0.00002073     -5927.7602039966 -1.32E-04
     6 OT DIIS     0.15E+00   20.8     0.00001303     -5927.7603945776 -1.91E-04
     7 OT DIIS     0.15E+00   20.6     0.00001028     -5927.7605094880 -1.15E-04
     8 OT DIIS     0.15E+00   20.7     0.00000743     -5927.7605836373 -7.41E-05
     9 OT DIIS     0.15E+00   20.4     0.00000949     -5927.7606268514 -4.32E-05
    10 OT DIIS     0.15E+00   20.6     0.00000691     -5927.7606570987 -3.02E-05
    11 OT DIIS     0.15E+00   20.5     0.00000508     -5927.7606731716 -1.61E-05
    12 OT DIIS     0.15E+00   20.1     0.00000390     -5927.7606946626 -2.15E-05
    13 OT DIIS     0.15E+00   19.3     0.00000394     -5927.7607105980 -1.59E-05
    14 OT DIIS     0.15E+00   19.9     0.00000378     -5927.7607190118 -8.41E-06
    15 OT DIIS     0.15E+00   20.2     0.00000309     -5927.7607296336 -1.06E-05
    16 OT DIIS     0.15E+00   19.7     0.00000329     -5927.7607353985 -5.76E-06
    17 OT DIIS     0.15E+00   20.3     0.00000267     -5927.7607414535 -6.06E-06
    18 OT DIIS     0.15E+00   21.0     0.00000246     -5927.7607455981 -4.14E-06
    19 OT DIIS     0.15E+00   21.3     0.00000273     -5927.7607499360 -4.34E-06
    20 OT DIIS     0.15E+00   21.4     0.00000199     -5927.7607542040 -4.27E-06
    21 OT DIIS     0.15E+00   21.1     0.00000175     -5927.7607567864 -2.58E-06
    22 OT DIIS     0.15E+00   20.7     0.00000170     -5927.7607597838 -3.00E-06
    23 OT DIIS     0.15E+00   21.7     0.00000195     -5927.7607615716 -1.79E-06
    24 OT DIIS     0.15E+00   20.9     0.00000169     -5927.7607628455 -1.27E-06
    25 OT DIIS     0.15E+00   20.4     0.00000183     -5927.7607642785 -1.43E-06
    26 OT DIIS     0.15E+00   20.5     0.00000162     -5927.7607655545 -1.28E-06
    27 OT DIIS     0.15E+00   20.8     0.00000144     -5927.7607670586 -1.50E-06
    28 OT DIIS     0.15E+00   21.0     0.00000160     -5927.7607681036 -1.04E-06
    29 OT DIIS     0.15E+00   21.2     0.00000135     -5927.7607686594 -5.56E-07
    30 OT DIIS     0.15E+00   21.3     0.00000121     -5927.7607695254 -8.66E-07

  Leaving inner SCF loop after reaching    30 steps.


  Electronic density on regular grids:      -3474.0000000008       -0.0000000008
  Core density on regular grids:             3473.9999999952       -0.0000000048
  Total charge density on r-space grids:       -0.0000000056
  Total charge density g-space grids:          -0.0000000046

  Overlap energy of the core charge distribution:               0.00000032698563
  Self energy of the core charge distribution:             -13965.50565932552126
  Core Hamiltonian energy:                                   3144.06485362719195
  Hartree energy:                                            6203.50463489440608
  Exchange-correlation energy:                              -1307.35668139450900
  Dispersion energy:                                           -2.46791765399469

  Total energy:                                             -5927.76076952544190

  outer SCF iter =    1 RMS gradient =   0.12E-05 energy =      -5927.7607695254

  ----------------------------------- OT ---------------------------------------
  Minimizer      : DIIS                : direct inversion
                                         in the iterative subspace
                                         using   8 DIIS vectors
                                         safer DIIS on
  Preconditioner : FULL_KINETIC        : inversion of T + eS
  Precond_solver : DEFAULT
  stepsize       :    0.15000000                  energy_gap     :    0.00010000
  eps_taylor     :   0.10000E-15                  max_taylor     :             4
  ----------------------------------- OT ---------------------------------------

  Step     Update method      Time    Convergence         Total energy    Change
  ------------------------------------------------------------------------------
     1 OT DIIS     0.15E+00   46.9     0.00000109     -5927.7607708185 -1.29E-06
     2 OT DIIS     0.15E+00   20.0     0.00000429     -5927.7607697099  1.11E-06
     3 OT DIIS     0.15E+00   19.9     0.00000126     -5927.7607721429 -2.43E-06
     4 OT DIIS     0.15E+00   19.5     0.00000084     -5927.7607725413 -3.98E-07

  *** SCF run converged in     4 steps ***


  Electronic density on regular grids:      -3474.0000000008       -0.0000000008
  Core density on regular grids:             3473.9999999952       -0.0000000048
  Total charge density on r-space grids:       -0.0000000057
  Total charge density g-space grids:          -0.0000000046

  Overlap energy of the core charge distribution:               0.00000032698563
  Self energy of the core charge distribution:             -13965.50565932552126
  Core Hamiltonian energy:                                   3144.06490009552181
  Hartree energy:                                            6203.50459994561152
  Exchange-correlation energy:                              -1307.35669592992258
  Dispersion energy:                                           -2.46791765399469

  Total energy:                                             -5927.76077254132088

  outer SCF iter =    2 RMS gradient =   0.84E-06 energy =      -5927.7607725413
  outer SCF loop converged in   2 iterations or   34 steps


 ENERGY| Total FORCE_EVAL ( QS ) energy (a.u.):            -5927.760773003933537


 --------  Informations at step =     1 ------------
  Optimization Method        =                 BFGS
  Total Energy               =     -5927.7607730039
  Real energy change         =        -0.0035740697
  Predicted change in energy =        -0.0025940070
  Scaling factor             =         0.0000000000
  Step size                  =         0.0670750740
  Trust radius               =         0.4724315332
  Decrease in energy         =                  YES
  Used time                  =              737.985

  Convergence check :
  Max. step size             =         0.0670750740
  Conv. limit for step size  =         0.0030000000
  Convergence in step size   =                   NO
  RMS step size              =         0.0040830490
  Conv. limit for RMS step   =         0.0015000000
  Convergence in RMS step    =                   NO
  Max. gradient              =         0.0046783476
  Conv. limit for gradients  =         0.0004500000
  Conv. for gradients        =                   NO
  RMS gradient               =         0.0003578235
  Conv. limit for RMS grad.  =         0.0003000000
  Conv. for gradients        =                   NO
 ---------------------------------------------------

 --------------------------
 OPTIMIZATION STEP:      2
 --------------------------

 Number of electrons:                                                       3474
 Number of occupied orbitals:                                               1737
 Number of molecular orbitals:                                              1737

 Number of orbital functions:                                               7524
 Number of independent orbital functions:                                   7524

 Extrapolation method: ASPC


 SCF WAVEFUNCTION OPTIMIZATION

  ----------------------------------- OT ---------------------------------------
  Minimizer      : DIIS                : direct inversion
                                         in the iterative subspace
                                         using   8 DIIS vectors
                                         safer DIIS on
  Preconditioner : FULL_KINETIC        : inversion of T + eS
  Precond_solver : DEFAULT
  stepsize       :    0.15000000                  energy_gap     :    0.00010000
  eps_taylor     :   0.10000E-15                  max_taylor     :             4
  ----------------------------------- OT ---------------------------------------

  Step     Update method      Time    Convergence         Total energy    Change
  ------------------------------------------------------------------------------
     1 OT DIIS     0.15E+00   20.3     0.00001119     -5927.7615884774 -5.93E+03
     2 OT DIIS     0.15E+00   20.9     0.00000862     -5927.7617835043 -1.95E-04
     3 OT DIIS     0.15E+00   20.9     0.00002474     -5927.7618089690 -2.55E-05
     4 OT DIIS     0.15E+00   20.5     0.00001005     -5927.7619346218 -1.26E-04
     5 OT DIIS     0.15E+00   21.0     0.00001061     -5927.7619687456 -3.41E-05
     6 OT DIIS     0.15E+00   20.7     0.00000637     -5927.7620136757 -4.49E-05
     7 OT DIIS     0.15E+00   20.9     0.00000555     -5927.7620523137 -3.86E-05
     8 OT DIIS     0.15E+00   20.3     0.00000577     -5927.7620715731 -1.93E-05
     9 OT DIIS     0.15E+00   19.2     0.00000481     -5927.7620840726 -1.25E-05
    10 OT DIIS     0.15E+00   19.2     0.00000326     -5927.7620945373 -1.05E-05
    11 OT DIIS     0.15E+00   19.9     0.00000254     -5927.7621030456 -8.51E-06
    12 OT DIIS     0.15E+00   19.8     0.00000259     -5927.7621082497 -5.20E-06
    13 OT DIIS     0.15E+00   20.2     0.00000235     -5927.7621137586 -5.51E-06
    14 OT DIIS     0.15E+00   20.8     0.00000222     -5927.7621168556 -3.10E-06
    15 OT DIIS     0.15E+00   20.9     0.00000216     -5927.7621207257 -3.87E-06
    16 OT DIIS     0.15E+00   20.9     0.00000178     -5927.7621231800 -2.45E-06
    17 OT DIIS     0.15E+00   20.2     0.00000180     -5927.7621258545 -2.67E-06
    18 OT DIIS     0.15E+00   20.7     0.00000188     -5927.7621279645 -2.11E-06
    19 OT DIIS     0.15E+00   21.1     0.00000138     -5927.7621302373 -2.27E-06
    20 OT DIIS     0.15E+00   20.0     0.00000134     -5927.7621323145 -2.08E-06
    21 OT DIIS     0.15E+00   21.2     0.00000135     -5927.7621342195 -1.90E-06
    22 OT DIIS     0.15E+00   21.5     0.00000131     -5927.7621353588 -1.14E-06
    23 OT DIIS     0.15E+00   21.0     0.00000157     -5927.7621364980 -1.14E-06
    24 OT DIIS     0.15E+00   20.5     0.00000131     -5927.7621374928 -9.95E-07
    25 OT DIIS     0.15E+00   20.7     0.00000129     -5927.7621385583 -1.07E-06
    26 OT DIIS     0.15E+00   20.6     0.00000121     -5927.7621395899 -1.03E-06
    27 OT DIIS     0.15E+00   20.5     0.00000128     -5927.7621402279 -6.38E-07
    28 OT DIIS     0.15E+00   19.9     0.00000110     -5927.7621402468 -1.89E-08
    29 OT DIIS     0.15E+00   19.6     0.00000097     -5927.7621418278 -1.58E-06

  *** SCF run converged in    29 steps ***


  Electronic density on regular grids:      -3474.0000000016       -0.0000000016
  Core density on regular grids:             3473.9999999952       -0.0000000048
  Total charge density on r-space grids:       -0.0000000065
  Total charge density g-space grids:          -0.0000000055

  Overlap energy of the core charge distribution:               0.00000032711771
  Self energy of the core charge distribution:             -13965.50565932552126
  Core Hamiltonian energy:                                   3144.05810133876457
  Hartree energy:                                            6203.50871806129908
  Exchange-correlation energy:                              -1307.35524461265641
  Dispersion energy:                                           -2.46805761675554

  Total energy:                                             -5927.76214182775038

  outer SCF iter =    1 RMS gradient =   0.97E-06 energy =      -5927.7621418278
  outer SCF loop converged in   1 iterations or   29 steps


 ENERGY| Total FORCE_EVAL ( QS ) energy (a.u.):            -5927.762141845981205


 --------  Informations at step =     2 ------------
  Optimization Method        =                 BFGS
  Total Energy               =     -5927.7621418460
  Real energy change         =        -0.0013688420
  Predicted change in energy =        -0.0010219418
  Scaling factor             =         0.0000000000
  Step size                  =         0.0626413262
  Trust radius               =         0.4724315332
  Decrease in energy         =                  YES
  Used time                  =              628.682

  Convergence check :
  Max. step size             =         0.0626413262
  Conv. limit for step size  =         0.0030000000
  Convergence in step size   =                   NO
  RMS step size              =         0.0039336697
  Conv. limit for RMS step   =         0.0015000000
  Convergence in RMS step    =                   NO
  Max. gradient              =         0.0037648040
  Conv. limit for gradients  =         0.0004500000
  Conv. for gradients        =                   NO
  RMS gradient               =         0.0002437196
  Conv. limit for RMS grad.  =         0.0003000000
  Conv. in RMS gradients     =                  YES
 ---------------------------------------------------

 --------------------------
 OPTIMIZATION STEP:      3
 --------------------------

 Number of electrons:                                                       3474
 Number of occupied orbitals:                                               1737
 Number of molecular orbitals:                                              1737

 Number of orbital functions:                                               7524
 Number of independent orbital functions:                                   7524

 Extrapolation method: ASPC


 SCF WAVEFUNCTION OPTIMIZATION

  ----------------------------------- OT ---------------------------------------
  Minimizer      : DIIS                : direct inversion
                                         in the iterative subspace
                                         using   8 DIIS vectors
                                         safer DIIS on
  Preconditioner : FULL_KINETIC        : inversion of T + eS
  Precond_solver : DEFAULT
  stepsize       :    0.15000000                  energy_gap     :    0.00010000
  eps_taylor     :   0.10000E-15                  max_taylor     :             4
  ----------------------------------- OT ---------------------------------------

  Step     Update method      Time    Convergence         Total energy    Change
  ------------------------------------------------------------------------------
     1 OT DIIS     0.15E+00   20.5     0.00001119     -5927.7621968821 -5.93E+03
     2 OT DIIS     0.15E+00   21.4     0.00001233     -5927.7623726202 -1.76E-04
     3 OT DIIS     0.15E+00   21.3     0.00002482     -5927.7623544875  1.81E-05
     4 OT DIIS     0.15E+00   20.9     0.00001225     -5927.7624867769 -1.32E-04
     5 OT DIIS     0.15E+00   20.7     0.00000715     -5927.7625226874 -3.59E-05
     6 OT DIIS     0.15E+00   20.4     0.00000649     -5927.7625499987 -2.73E-05
     7 OT DIIS     0.15E+00   20.7     0.00000609     -5927.7625741338 -2.41E-05
     8 OT DIIS     0.15E+00   19.8     0.00000573     -5927.7625873092 -1.32E-05
     9 OT DIIS     0.15E+00   20.1     0.00000352     -5927.7625990518 -1.17E-05
    10 OT DIIS     0.15E+00   20.8     0.00000283     -5927.7626056183 -6.57E-06
    11 OT DIIS     0.15E+00   20.2     0.00000248     -5927.7626122763 -6.66E-06
    12 OT DIIS     0.15E+00   19.9     0.00000215     -5927.7626154958 -3.22E-06
    13 OT DIIS     0.15E+00   20.4     0.00000239     -5927.7626186106 -3.11E-06
    14 OT DIIS     0.15E+00   20.9     0.00000183     -5927.7626214946 -2.88E-06
    15 OT DIIS     0.15E+00   20.4     0.00000189     -5927.7626234696 -1.97E-06
    16 OT DIIS     0.15E+00   20.5     0.00000156     -5927.7626256674 -2.20E-06
    17 OT DIIS     0.15E+00   20.5     0.00000173     -5927.7626271760 -1.51E-06
    18 OT DIIS     0.15E+00   20.7     0.00000171     -5927.7626285218 -1.35E-06
    19 OT DIIS     0.15E+00   21.1     0.00000101     -5927.7626305584 -2.04E-06
    20 OT DIIS     0.15E+00   21.6     0.00000120     -5927.7626316341 -1.08E-06
    21 OT DIIS     0.15E+00   20.6     0.00000126     -5927.7626328265 -1.19E-06
    22 OT DIIS     0.15E+00   21.2     0.00000116     -5927.7626337354 -9.09E-07
    23 OT DIIS     0.15E+00   21.2     0.00000126     -5927.7626339601 -2.25E-07
    24 OT DIIS     0.15E+00   20.3     0.00000131     -5927.7626346534 -6.93E-07
    25 OT DIIS     0.15E+00   20.7     0.00000100     -5927.7626353281 -6.75E-07

  *** SCF run converged in    25 steps ***


  Electronic density on regular grids:      -3474.0000000015       -0.0000000015
  Core density on regular grids:             3473.9999999952       -0.0000000048
  Total charge density on r-space grids:       -0.0000000063
  Total charge density g-space grids:          -0.0000000053

  Overlap energy of the core charge distribution:               0.00000032694759
  Self energy of the core charge distribution:             -13965.50565932552126
  Core Hamiltonian energy:                                   3144.03594138646031
  Hartree energy:                                            6203.52351739021015
  Exchange-correlation energy:                              -1307.34828436085991
  Dispersion energy:                                           -2.46815074536335

  Total energy:                                             -5927.76263532812754

  outer SCF iter =    1 RMS gradient =   0.10E-05 energy =      -5927.7626353281
  outer SCF loop converged in   1 iterations or   25 steps


 ENERGY| Total FORCE_EVAL ( QS ) energy (a.u.):            -5927.762635881278584


 --------  Informations at step =     3 ------------
  Optimization Method        =                 BFGS
  Total Energy               =     -5927.7626358813
  Real energy change         =        -0.0004940353
  Predicted change in energy =        -0.0003635016
  Scaling factor             =         0.0000000000
  Step size                  =         0.0590230199
  Trust radius               =         0.4724315332
  Decrease in energy         =                  YES
  Used time                  =              550.022

  Convergence check :
  Max. step size             =         0.0590230199
  Conv. limit for step size  =         0.0030000000
  Convergence in step size   =                   NO
  RMS step size              =         0.0027083430
  Conv. limit for RMS step   =         0.0015000000
  Convergence in RMS step    =                   NO
  Max. gradient              =         0.0039252629
  Conv. limit for gradients  =         0.0004500000
  Conv. for gradients        =                   NO
  RMS gradient               =         0.0002439935
  Conv. limit for RMS grad.  =         0.0003000000
  Conv. in RMS gradients     =                  YES
 ---------------------------------------------------

 --------------------------
 OPTIMIZATION STEP:      4
 --------------------------

 Number of electrons:                                                       3474
 Number of occupied orbitals:                                               1737
 Number of molecular orbitals:                                              1737

 Number of orbital functions:                                               7524
 Number of independent orbital functions:                                   7524

 Extrapolation method: ASPC


 SCF WAVEFUNCTION OPTIMIZATION

  ----------------------------------- OT ---------------------------------------
  Minimizer      : DIIS                : direct inversion
                                         in the iterative subspace
                                         using   8 DIIS vectors
                                         safer DIIS on
  Preconditioner : FULL_KINETIC        : inversion of T + eS
  Precond_solver : DEFAULT
  stepsize       :    0.15000000                  energy_gap     :    0.00010000
  eps_taylor     :   0.10000E-15                  max_taylor     :             4
  ----------------------------------- OT ---------------------------------------

  Step     Update method      Time    Convergence         Total energy    Change
  ------------------------------------------------------------------------------
     1 OT DIIS     0.15E+00   19.9     0.00000662     -5927.7630591858 -5.93E+03
     2 OT DIIS     0.15E+00   20.0     0.00001883     -5927.7630711567 -1.20E-05
     3 OT DIIS     0.15E+00   18.5     0.00000784     -5927.7631123126 -4.12E-05
     4 OT DIIS     0.15E+00   19.2     0.00000880     -5927.7631232545 -1.09E-05
     5 OT DIIS     0.15E+00   19.7     0.00000434     -5927.7631474986 -2.42E-05
     6 OT DIIS     0.15E+00   18.9     0.00000417     -5927.7631573206 -9.82E-06
     7 OT DIIS     0.15E+00   20.5     0.00000479     -5927.7631625780 -5.26E-06
     8 OT DIIS     0.15E+00   19.5     0.00000269     -5927.7631709205 -8.34E-06
     9 OT DIIS     0.15E+00   19.5     0.00000229     -5927.7631742371 -3.32E-06
    10 OT DIIS     0.15E+00   20.4     0.00000158     -5927.7631765849 -2.35E-06
    11 OT DIIS     0.15E+00   21.4     0.00000130     -5927.7631792635 -2.68E-06
    12 OT DIIS     0.15E+00   21.4     0.00000147     -5927.7631802343 -9.71E-07
    13 OT DIIS     0.15E+00   21.0     0.00000124     -5927.7631814646 -1.23E-06
    14 OT DIIS     0.15E+00   20.7     0.00000080     -5927.7631826534 -1.19E-06

  *** SCF run converged in    14 steps ***


  Electronic density on regular grids:      -3474.0000000011       -0.0000000011
  Core density on regular grids:             3473.9999999952       -0.0000000048
  Total charge density on r-space grids:       -0.0000000059
  Total charge density g-space grids:          -0.0000000050

  Overlap energy of the core charge distribution:               0.00000032658990
  Self energy of the core charge distribution:             -13965.50565932552126
  Core Hamiltonian energy:                                   3144.00873148501751
  Hartree energy:                                            6203.54182549281541
  Exchange-correlation energy:                              -1307.33992442782483
  Dispersion energy:                                           -2.46815620449420

  Total energy:                                             -5927.76318265341706

  outer SCF iter =    1 RMS gradient =   0.80E-06 energy =      -5927.7631826534
  outer SCF loop converged in   1 iterations or   14 steps


 ENERGY| Total FORCE_EVAL ( QS ) energy (a.u.):            -5927.763183781082262


 --------  Informations at step =     4 ------------
  Optimization Method        =                 BFGS
  Total Energy               =     -5927.7631837811
  Real energy change         =        -0.0005478998
  Predicted change in energy =        -0.0003311433
  Scaling factor             =         0.0000000000
  Step size                  =         0.0429255515
  Trust radius               =         0.4724315332
  Decrease in energy         =                  YES
  Used time                  =              315.506

  Convergence check :
  Max. step size             =         0.0429255515
  Conv. limit for step size  =         0.0030000000
  Convergence in step size   =                   NO
  RMS step size              =         0.0026722566
  Conv. limit for RMS step   =         0.0015000000
  Convergence in RMS step    =                   NO
  Max. gradient              =         0.0026477367
  Conv. limit for gradients  =         0.0004500000
  Conv. for gradients        =                   NO
  RMS gradient               =         0.0001432493
  Conv. limit for RMS grad.  =         0.0003000000
  Conv. in RMS gradients     =                  YES
 ---------------------------------------------------

 --------------------------
 OPTIMIZATION STEP:      5
 --------------------------

 Number of electrons:                                                       3474
 Number of occupied orbitals:                                               1737
 Number of molecular orbitals:                                              1737

 Number of orbital functions:                                               7524
 Number of independent orbital functions:                                   7524

 Extrapolation method: ASPC


 SCF WAVEFUNCTION OPTIMIZATION

  ----------------------------------- OT ---------------------------------------
  Minimizer      : DIIS                : direct inversion
                                         in the iterative subspace
                                         using   8 DIIS vectors
                                         safer DIIS on
  Preconditioner : FULL_KINETIC        : inversion of T + eS
  Precond_solver : DEFAULT
  stepsize       :    0.15000000                  energy_gap     :    0.00010000
  eps_taylor     :   0.10000E-15                  max_taylor     :             4
  ----------------------------------- OT ---------------------------------------

  Step     Update method      Time    Convergence         Total energy    Change
  ------------------------------------------------------------------------------
     1 OT DIIS     0.15E+00   20.0     0.00000758     -5927.7634923072 -5.93E+03
     2 OT DIIS     0.15E+00   19.1     0.00002293     -5927.7634964132 -4.11E-06
     3 OT DIIS     0.15E+00   18.8     0.00000836     -5927.7635654919 -6.91E-05
     4 OT DIIS     0.15E+00   19.5     0.00000990     -5927.7635792652 -1.38E-05
     5 OT DIIS     0.15E+00   19.9     0.00000695     -5927.7636235195 -4.43E-05
     6 OT DIIS     0.15E+00   19.5     0.00000514     -5927.7636498177 -2.63E-05
     7 OT DIIS     0.15E+00   19.8     0.00000395     -5927.7636624116 -1.26E-05
     8 OT DIIS     0.15E+00   20.5     0.00000517     -5927.7636768050 -1.44E-05
     9 OT DIIS     0.15E+00   20.0     0.00000292     -5927.7636859144 -9.11E-06
    10 OT DIIS     0.15E+00   20.7     0.00000205     -5927.7636902399 -4.33E-06
    11 OT DIIS     0.15E+00   21.3     0.00000235     -5927.7636985876 -8.35E-06
    12 OT DIIS     0.15E+00   21.4     0.00000211     -5927.7637008252 -2.24E-06
    13 OT DIIS     0.15E+00   21.0     0.00000206     -5927.7637033216 -2.50E-06
    14 OT DIIS     0.15E+00   21.2     0.00000135     -5927.7637071916 -3.87E-06
    15 OT DIIS     0.15E+00   20.8     0.00000132     -5927.7637096406 -2.45E-06
    16 OT DIIS     0.15E+00   21.0     0.00000109     -5927.7637118740 -2.23E-06
    17 OT DIIS     0.15E+00   20.7     0.00000140     -5927.7637141922 -2.32E-06
    18 OT DIIS     0.15E+00   20.7     0.00000107     -5927.7637158500 -1.66E-06
    19 OT DIIS     0.15E+00   20.6     0.00000093     -5927.7637172431 -1.39E-06

  *** SCF run converged in    19 steps ***


  Electronic density on regular grids:      -3474.0000000010       -0.0000000010
  Core density on regular grids:             3473.9999999952       -0.0000000048
  Total charge density on r-space grids:       -0.0000000059
  Total charge density g-space grids:          -0.0000000048

  Overlap energy of the core charge distribution:               0.00000032629848
  Self energy of the core charge distribution:             -13965.50565932552126
  Core Hamiltonian energy:                                   3143.98463268759042
  Hartree energy:                                            6203.55832472065413
  Exchange-correlation energy:                              -1307.33291958390805
  Dispersion energy:                                           -2.46809606825148

  Total energy:                                             -5927.76371724313867

  outer SCF iter =    1 RMS gradient =   0.93E-06 energy =      -5927.7637172431
  outer SCF loop converged in   1 iterations or   19 steps


 ENERGY| Total FORCE_EVAL ( QS ) energy (a.u.):            -5927.763719322697398


 --------  Informations at step =     5 ------------
  Optimization Method        =                 BFGS
  Total Energy               =     -5927.7637193227
  Real energy change         =        -0.0005355416
  Predicted change in energy =        -0.0003847972
  Scaling factor             =         0.0000000000
  Step size                  =         0.0832046843
  Trust radius               =         0.4724315332
  Decrease in energy         =                  YES
  Used time                  =              423.360

  Convergence check :
  Max. step size             =         0.0832046843
  Conv. limit for step size  =         0.0030000000
  Convergence in step size   =                   NO
  RMS step size              =         0.0048926741
  Conv. limit for RMS step   =         0.0015000000
  Convergence in RMS step    =                   NO
  Max. gradient              =         0.0022421320
  Conv. limit for gradients  =         0.0004500000
  Conv. for gradients        =                   NO
  RMS gradient               =         0.0001626221
  Conv. limit for RMS grad.  =         0.0003000000
  Conv. in RMS gradients     =                  YES
 ---------------------------------------------------

 --------------------------
 OPTIMIZATION STEP:      6
 --------------------------

 Number of electrons:                                                       3474
 Number of occupied orbitals:                                               1737
 Number of molecular orbitals:                                              1737

 Number of orbital functions:                                               7524
 Number of independent orbital functions:                                   7524

 Extrapolation method: ASPC


 SCF WAVEFUNCTION OPTIMIZATION

  ----------------------------------- OT ---------------------------------------
  Minimizer      : DIIS                : direct inversion
                                         in the iterative subspace
                                         using   8 DIIS vectors
                                         safer DIIS on
  Preconditioner : FULL_KINETIC        : inversion of T + eS
  Precond_solver : DEFAULT
  stepsize       :    0.15000000                  energy_gap     :    0.00010000
  eps_taylor     :   0.10000E-15                  max_taylor     :             4
  ----------------------------------- OT ---------------------------------------

  Step     Update method      Time    Convergence         Total energy    Change
  ------------------------------------------------------------------------------
     1 OT DIIS     0.15E+00   19.7     0.00001266     -5927.7633437890 -5.93E+03
     2 OT DIIS     0.15E+00   20.5     0.00002073     -5927.7635420733 -1.98E-04
     3 OT DIIS     0.15E+00   20.1     0.00001654     -5927.7636039224 -6.18E-05
     4 OT DIIS     0.15E+00   19.4     0.00002267     -5927.7636886996 -8.48E-05
     5 OT DIIS     0.15E+00   19.9     0.00001133     -5927.7638544348 -1.66E-04
     6 OT DIIS     0.15E+00   20.3     0.00000787     -5927.7639187230 -6.43E-05
     7 OT DIIS     0.15E+00   20.4     0.00000792     -5927.7639572934 -3.86E-05
     8 OT DIIS     0.15E+00   20.2     0.00000616     -5927.7640024572 -4.52E-05
     9 OT DIIS     0.15E+00   19.3     0.00000623     -5927.7640158325 -1.34E-05
    10 OT DIIS     0.15E+00   19.8     0.00000346     -5927.7640265264 -1.07E-05
    11 OT DIIS     0.15E+00   20.3     0.00000327     -5927.7640416799 -1.52E-05
    12 OT DIIS     0.15E+00   21.2     0.00000279     -5927.7640462725 -4.59E-06
    13 OT DIIS     0.15E+00   20.8     0.00000286     -5927.7640513588 -5.09E-06
    14 OT DIIS     0.15E+00   20.5     0.00000200     -5927.7640563294 -4.97E-06
    15 OT DIIS     0.15E+00   21.1     0.00000184     -5927.7640600693 -3.74E-06
    16 OT DIIS     0.15E+00   21.4     0.00000153     -5927.7640629890 -2.92E-06
    17 OT DIIS     0.15E+00   21.7     0.00000192     -5927.7640663346 -3.35E-06
    18 OT DIIS     0.15E+00   21.8     0.00000133     -5927.7640681397 -1.81E-06
    19 OT DIIS     0.15E+00   21.3     0.00000112     -5927.7640701024 -1.96E-06
    20 OT DIIS     0.15E+00   21.4     0.00000110     -5927.7640722286 -2.13E-06
    21 OT DIIS     0.15E+00   21.3     0.00000107     -5927.7640732266 -9.98E-07
    22 OT DIIS     0.15E+00   20.7     0.00000106     -5927.7640744760 -1.25E-06
    23 OT DIIS     0.15E+00   21.1     0.00000084     -5927.7640756424 -1.17E-06

  *** SCF run converged in    23 steps ***


  Electronic density on regular grids:      -3474.0000000011       -0.0000000011
  Core density on regular grids:             3473.9999999952       -0.0000000048
  Total charge density on r-space grids:       -0.0000000059
  Total charge density g-space grids:          -0.0000000051

  Overlap energy of the core charge distribution:               0.00000032627832
  Self energy of the core charge distribution:             -13965.50565932552126
  Core Hamiltonian energy:                                   3143.98169088147915
  Hartree energy:                                            6203.56083525933900
  Exchange-correlation energy:                              -1307.33294787661498
  Dispersion energy:                                           -2.46799490730982

  Total energy:                                             -5927.76407564235069

  outer SCF iter =    1 RMS gradient =   0.84E-06 energy =      -5927.7640756424
  outer SCF loop converged in   1 iterations or   23 steps


 ENERGY| Total FORCE_EVAL ( QS ) energy (a.u.):            -5927.764076672392548


 --------  Informations at step =     6 ------------
  Optimization Method        =                 BFGS
  Total Energy               =     -5927.7640766724
  Real energy change         =        -0.0003573497
  Predicted change in energy =        -0.0002189428
  Scaling factor             =         0.0000000000
  Step size                  =         0.0622475999
  Trust radius               =         0.4724315332
  Decrease in energy         =                  YES
  Used time                  =              511.736

  Convergence check :
  Max. step size             =         0.0622475999
  Conv. limit for step size  =         0.0030000000
  Convergence in step size   =                   NO
  RMS step size              =         0.0038288264
  Conv. limit for RMS step   =         0.0015000000
  Convergence in RMS step    =                   NO
  Max. gradient              =         0.0027809489
  Conv. limit for gradients  =         0.0004500000
  Conv. for gradients        =                   NO
  RMS gradient               =         0.0001787524
  Conv. limit for RMS grad.  =         0.0003000000
  Conv. in RMS gradients     =                  YES
 ---------------------------------------------------

 --------------------------
 OPTIMIZATION STEP:      7
 --------------------------

 Number of electrons:                                                       3474
 Number of occupied orbitals:                                               1737
 Number of molecular orbitals:                                              1737

 Number of orbital functions:                                               7524
 Number of independent orbital functions:                                   7524

 Extrapolation method: ASPC


 SCF WAVEFUNCTION OPTIMIZATION

  ----------------------------------- OT ---------------------------------------
  Minimizer      : DIIS                : direct inversion
                                         in the iterative subspace
                                         using   8 DIIS vectors
                                         safer DIIS on
  Preconditioner : FULL_KINETIC        : inversion of T + eS
  Precond_solver : DEFAULT
  stepsize       :    0.15000000                  energy_gap     :    0.00010000
  eps_taylor     :   0.10000E-15                  max_taylor     :             4
  ----------------------------------- OT ---------------------------------------

  Step     Update method      Time    Convergence         Total energy    Change
  ------------------------------------------------------------------------------
     1 OT DIIS     0.15E+00   20.1     0.00000993     -5927.7640626843 -5.93E+03
     2 OT DIIS     0.15E+00   19.2     0.00001897     -5927.7641740493 -1.11E-04
     3 OT DIIS     0.15E+00   20.1     0.00001117     -5927.7642266978 -5.26E-05
     4 OT DIIS     0.15E+00   20.7     0.00001790     -5927.7642859682 -5.93E-05
     5 OT DIIS     0.15E+00   21.1     0.00001063     -5927.7643960143 -1.10E-04
     6 OT DIIS     0.15E+00   20.8     0.00000523     -5927.7644506545 -5.46E-05
     7 OT DIIS     0.15E+00   20.3     0.00000769     -5927.7644716056 -2.10E-05
     8 OT DIIS     0.15E+00   21.0     0.00000589     -5927.7644954669 -2.39E-05
     9 OT DIIS     0.15E+00   20.5     0.00000336     -5927.7645041464 -8.68E-06
    10 OT DIIS     0.15E+00   20.5     0.00000223     -5927.7645100458 -5.90E-06
    11 OT DIIS     0.15E+00   19.8     0.00000205     -5927.7645166472 -6.60E-06
    12 OT DIIS     0.15E+00   20.4     0.00000232     -5927.7645177968 -1.15E-06
    13 OT DIIS     0.15E+00   21.2     0.00000191     -5927.7645205395 -2.74E-06
    14 OT DIIS     0.15E+00   20.8     0.00000144     -5927.7645228353 -2.30E-06
    15 OT DIIS     0.15E+00   21.0     0.00000122     -5927.7645246577 -1.82E-06
    16 OT DIIS     0.15E+00   21.0     0.00000124     -5927.7645261581 -1.50E-06
    17 OT DIIS     0.15E+00   20.8     0.00000125     -5927.7645279042 -1.75E-06
    18 OT DIIS     0.15E+00   20.2     0.00000099     -5927.7645290002 -1.10E-06

  *** SCF run converged in    18 steps ***


  Electronic density on regular grids:      -3474.0000000016       -0.0000000016
  Core density on regular grids:             3473.9999999952       -0.0000000048
  Total charge density on r-space grids:       -0.0000000064
  Total charge density g-space grids:          -0.0000000053

  Overlap energy of the core charge distribution:               0.00000032646090
  Self energy of the core charge distribution:             -13965.50565932552126
  Core Hamiltonian energy:                                   3143.99477025751730
  Hartree energy:                                            6203.55244131245036
  Exchange-correlation energy:                              -1307.33826666522782
  Dispersion energy:                                           -2.46781490589035

  Total energy:                                             -5927.76452900021104

  outer SCF iter =    1 RMS gradient =   0.99E-06 energy =      -5927.7645290002
  outer SCF loop converged in   1 iterations or   18 steps


 ENERGY| Total FORCE_EVAL ( QS ) energy (a.u.):            -5927.764530189083416


 --------  Informations at step =     7 ------------
  Optimization Method        =                 BFGS
  Total Energy               =     -5927.7645301891
  Real energy change         =        -0.0004535167
  Predicted change in energy =        -0.0002788008
  Scaling factor             =         0.0000000000
  Step size                  =         0.0704652853
  Trust radius               =         0.4724315332
  Decrease in energy         =                  YES
  Used time                  =              406.724

  Convergence check :
  Max. step size             =         0.0704652853
  Conv. limit for step size  =         0.0030000000
  Convergence in step size   =                   NO
  RMS step size              =         0.0045766984
  Conv. limit for RMS step   =         0.0015000000
  Convergence in RMS step    =                   NO
  Max. gradient              =         0.0022332806
  Conv. limit for gradients  =         0.0004500000
  Conv. for gradients        =                   NO
  RMS gradient               =         0.0001417261
  Conv. limit for RMS grad.  =         0.0003000000
  Conv. in RMS gradients     =                  YES
 ---------------------------------------------------

 --------------------------
 OPTIMIZATION STEP:      8
 --------------------------

 Number of electrons:                                                       3474
 Number of occupied orbitals:                                               1737
 Number of molecular orbitals:                                              1737

 Number of orbital functions:                                               7524
 Number of independent orbital functions:                                   7524

 Extrapolation method: ASPC


 SCF WAVEFUNCTION OPTIMIZATION

  ----------------------------------- OT ---------------------------------------
  Minimizer      : DIIS                : direct inversion
                                         in the iterative subspace
                                         using   8 DIIS vectors
                                         safer DIIS on
  Preconditioner : FULL_KINETIC        : inversion of T + eS
  Precond_solver : DEFAULT
  stepsize       :    0.15000000                  energy_gap     :    0.00010000
  eps_taylor     :   0.10000E-15                  max_taylor     :             4
  ----------------------------------- OT ---------------------------------------

  Step     Update method      Time    Convergence         Total energy    Change
  ------------------------------------------------------------------------------
     1 OT DIIS     0.15E+00   20.3     0.00001682     -5927.7635288199 -5.93E+03
     2 OT DIIS     0.15E+00   20.3     0.00002390     -5927.7639248494 -3.96E-04
     3 OT DIIS     0.15E+00   19.5     0.00002322     -5927.7640057850 -8.09E-05
     4 OT DIIS     0.15E+00   20.0     0.00002995     -5927.7642745489 -2.69E-04
     5 OT DIIS     0.15E+00   19.9     0.00001325     -5927.7645056998 -2.31E-04
     6 OT DIIS     0.15E+00   19.3     0.00000944     -5927.7645945818 -8.89E-05
     7 OT DIIS     0.15E+00   19.9     0.00001168     -5927.7646713216 -7.67E-05
     8 OT DIIS     0.15E+00   21.0     0.00000805     -5927.7647319066 -6.06E-05
     9 OT DIIS     0.15E+00   21.1     0.00000690     -5927.7647547752 -2.29E-05
    10 OT DIIS     0.15E+00   20.9     0.00000426     -5927.7647884823 -3.37E-05
    11 OT DIIS     0.15E+00   20.7     0.00000462     -5927.7648093178 -2.08E-05
    12 OT DIIS     0.15E+00   20.8     0.00000379     -5927.7648187149 -9.40E-06
    13 OT DIIS     0.15E+00   20.3     0.00000406     -5927.7648323994 -1.37E-05
    14 OT DIIS     0.15E+00   21.1     0.00000264     -5927.7648431921 -1.08E-05
    15 OT DIIS     0.15E+00   21.8     0.00000257     -5927.7648519297 -8.74E-06
    16 OT DIIS     0.15E+00   21.5     0.00000242     -5927.7648606221 -8.69E-06
    17 OT DIIS     0.15E+00   21.4     0.00000210     -5927.7648689634 -8.34E-06
    18 OT DIIS     0.15E+00   20.6     0.00000235     -5927.7648735751 -4.61E-06
    19 OT DIIS     0.15E+00   21.2     0.00000200     -5927.7648797253 -6.15E-06
    20 OT DIIS     0.15E+00   20.8     0.00000181     -5927.7648837694 -4.04E-06
    21 OT DIIS     0.15E+00   20.2     0.00000151     -5927.7648871126 -3.34E-06
    22 OT DIIS     0.15E+00   19.9     0.00000185     -5927.7648906059 -3.49E-06
    23 OT DIIS     0.15E+00   21.0     0.00000123     -5927.7648936677 -3.06E-06
    24 OT DIIS     0.15E+00   20.8     0.00000126     -5927.7648962738 -2.61E-06
    25 OT DIIS     0.15E+00   21.1     0.00000112     -5927.7648986803 -2.41E-06
    26 OT DIIS     0.15E+00   21.1     0.00000110     -5927.7649009528 -2.27E-06
    27 OT DIIS     0.15E+00   21.0     0.00000107     -5927.7649024674 -1.51E-06
    28 OT DIIS     0.15E+00   21.1     0.00000104     -5927.7649046168 -2.15E-06
    29 OT DIIS     0.15E+00   22.2     0.00000098     -5927.7649062303 -1.61E-06

  *** SCF run converged in    29 steps ***


  Electronic density on regular grids:      -3474.0000000016       -0.0000000016
  Core density on regular grids:             3473.9999999952       -0.0000000048
  Total charge density on r-space grids:       -0.0000000064
  Total charge density g-space grids:          -0.0000000055

  Overlap energy of the core charge distribution:               0.00000032659881
  Self energy of the core charge distribution:             -13965.50565932552126
  Core Hamiltonian energy:                                   3143.99719964292035
  Hartree energy:                                            6203.55202852300772
  Exchange-correlation energy:                              -1307.34111768127150
  Dispersion energy:                                           -2.46735771607678

  Total energy:                                             -5927.76490623034169

  outer SCF iter =    1 RMS gradient =   0.98E-06 energy =      -5927.7649062303
  outer SCF loop converged in   1 iterations or   29 steps


 ENERGY| Total FORCE_EVAL ( QS ) energy (a.u.):            -5927.764907973304616


[...]
 flops     6 x     6 x   448           4932652032       0.0%    100.0%      0.0%
 flops     6 x     9 x    13          25166062584       0.0%    100.0%      0.0%
 flops    13 x     9 x     6          25166062584       0.0%    100.0%      0.0%
 flops     6 x    32 x     6          34752374784       0.0%    100.0%      0.0%
 flops    13 x    32 x    32         149888434176       0.0%    100.0%      0.0%
 flops     6 x    13 x   416         272795657472       0.0%    100.0%      0.0%
 flops    13 x     6 x   416         272967891456       0.0%    100.0%      0.0%
 flops     6 x    13 x   425         278697486600       0.0%    100.0%      0.0%
 flops    13 x     6 x   425         278873446800       0.0%    100.0%      0.0%
 flops     6 x    13 x   448         587559877632       0.0%    100.0%      0.0%
 flops    13 x     6 x   448         587930843136       0.0%    100.0%      0.0%
 flops   416 x   416 x   416        2741140586496     100.0%      0.0%      0.0%
 flops   416 x   416 x   425        2800444108800     100.0%      0.0%      0.0%
 flops   416 x   425 x   416        2800444108800     100.0%      0.0%      0.0%
 flops   425 x   416 x   416        2800444108800     100.0%      0.0%      0.0%
 flops   416 x   425 x   425        2861030640000     100.0%      0.0%      0.0%
 flops   425 x   416 x   425        2861030640000     100.0%      0.0%      0.0%
 flops   425 x   425 x   416        2861030640000     100.0%      0.0%      0.0%
 flops   425 x   425 x   425        2922927937500     100.0%      0.0%      0.0%
 flops    13 x     9 x    13        4491455354100       0.0%    100.0%      0.0%
 flops    13 x    32 x     6        4831884016128       0.0%    100.0%      0.0%
 flops     6 x    32 x    13        4831884016128       0.0%    100.0%      0.0%
 flops   416 x   416 x   448        5903995109376     100.0%      0.0%      0.0%
 flops   416 x   448 x   416        5903995109376     100.0%      0.0%      0.0%
 flops   448 x   416 x   416        5903995109376     100.0%      0.0%      0.0%
 flops   416 x   425 x   448        6031725772800     100.0%      0.0%      0.0%
 flops   416 x   448 x   425        6031725772800     100.0%      0.0%      0.0%
 flops   425 x   416 x   448        6031725772800     100.0%      0.0%      0.0%
 flops   425 x   448 x   416        6031725772800     100.0%      0.0%      0.0%
 flops   448 x   416 x   425        6031725772800     100.0%      0.0%      0.0%
 flops   448 x   425 x   416        6031725772800     100.0%      0.0%      0.0%
 flops   425 x   425 x   448        6162219840000     100.0%      0.0%      0.0%
 flops   425 x   448 x   425        6162219840000     100.0%      0.0%      0.0%
 flops   448 x   425 x   425        6162219840000     100.0%      0.0%      0.0%
 flops   448 x   448 x   416       12716297158656     100.0%      0.0%      0.0%
 flops   416 x   448 x   448       12716297158656     100.0%      0.0%      0.0%
 flops   448 x   416 x   448       12716297158656     100.0%      0.0%      0.0%
 flops   448 x   448 x   425       12991409356800     100.0%      0.0%      0.0%
 flops   425 x   448 x   448       12991409356800     100.0%      0.0%      0.0%
 flops   448 x   425 x   448       12991409356800     100.0%      0.0%      0.0%
 flops   416 x   416 x  1878       17392655474688     100.0%      0.0%      0.0%
 flops   416 x   416 x  1884       17448223064064     100.0%      0.0%      0.0%
 flops   416 x   425 x  1878       17768938886400     100.0%      0.0%      0.0%
 flops   425 x   416 x  1878       17768938886400     100.0%      0.0%      0.0%
 flops   416 x   425 x  1884       17825708659200     100.0%      0.0%      0.0%
 flops   425 x   416 x  1884       17825708659200     100.0%      0.0%      0.0%
 flops   425 x   425 x  1878       18153363045000     100.0%      0.0%      0.0%
 flops   425 x   425 x  1884       18211361010000     100.0%      0.0%      0.0%
 flops  1878 x   416 x   416       21564344795136     100.0%      0.0%      0.0%
 flops  1884 x   416 x   416       21633240465408     100.0%      0.0%      0.0%
 flops  1878 x   416 x   425       22030881100800     100.0%      0.0%      0.0%
 flops  1878 x   425 x   416       22030881100800     100.0%      0.0%      0.0%
 flops  1884 x   416 x   425       22101267302400     100.0%      0.0%      0.0%
 flops  1884 x   425 x   416       22101267302400     100.0%      0.0%      0.0%
 flops  1878 x   425 x   425       22507510740000     100.0%      0.0%      0.0%
 flops  1884 x   425 x   425       22579419720000     100.0%      0.0%      0.0%
 flops   448 x   448 x   448       27388947726336     100.0%      0.0%      0.0%
 flops   416 x   448 x  1878       37461104099328     100.0%      0.0%      0.0%
 flops   448 x   416 x  1878       37461104099328     100.0%      0.0%      0.0%
 flops   416 x   448 x  1884       37580788137984     100.0%      0.0%      0.0%
 flops   448 x   416 x  1884       37580788137984     100.0%      0.0%      0.0%
 flops   425 x   448 x  1878       38271560678400     100.0%      0.0%      0.0%
 flops   448 x   425 x  1878       38271560678400     100.0%      0.0%      0.0%
 flops   425 x   448 x  1884       38393834035200     100.0%      0.0%      0.0%
 flops   448 x   425 x  1884       38393834035200     100.0%      0.0%      0.0%
 flops  1878 x   416 x  1878       41914505198592     100.0%      0.0%      0.0%
 flops  1878 x   416 x  1884       42048417355776     100.0%      0.0%      0.0%
 flops  1884 x   416 x  1878       42048417355776     100.0%      0.0%      0.0%
 flops  1884 x   416 x  1884       42182757347328     100.0%      0.0%      0.0%
 flops  1878 x   425 x  1878       42821309397600     100.0%      0.0%      0.0%
 flops  1878 x   425 x  1884       42958118692800     100.0%      0.0%      0.0%
 flops  1884 x   425 x  1878       42958118692800     100.0%      0.0%      0.0%
 flops  1884 x   425 x  1884       43095365078400     100.0%      0.0%      0.0%
 flops  1878 x   448 x   416       46446281097216     100.0%      0.0%      0.0%
 flops  1878 x   416 x   448       46446281097216     100.0%      0.0%      0.0%
 flops  1884 x   416 x   448       46594671771648     100.0%      0.0%      0.0%
 flops  1884 x   448 x   416       46594671771648     100.0%      0.0%      0.0%
 flops  1878 x   448 x   425       47451128524800     100.0%      0.0%      0.0%
 flops  1878 x   425 x   448       47451128524800     100.0%      0.0%      0.0%
 flops  1884 x   425 x   448       47602729574400     100.0%      0.0%      0.0%
 flops  1884 x   448 x   425       47602729574400     100.0%      0.0%      0.0%
 flops    13 x    13 x   416       48857989210368       0.0%    100.0%      0.0%
 flops    13 x    13 x   425       49915013015400       0.0%    100.0%      0.0%
 flops   448 x   448 x  1878       80685454983168     100.0%      0.0%      0.0%
 flops   448 x   448 x  1884       80943235989504     100.0%      0.0%      0.0%
 flops  1878 x   448 x  1878       90277395812352     100.0%      0.0%      0.0%
 flops  1878 x   448 x  1884       90565821997056     100.0%      0.0%      0.0%
 flops  1884 x   448 x  1878       90565821997056     100.0%      0.0%      0.0%
 flops  1884 x   448 x  1884       90855169671168     100.0%      0.0%      0.0%
 flops  1878 x   448 x   448      100038143901696     100.0%      0.0%      0.0%
 flops  1884 x   448 x   448      100357754585088     100.0%      0.0%      0.0%
 flops    13 x    13 x   448      105232592145408       0.0%    100.0%      0.0%
 flops    13 x    32 x    13      862359427987200       0.0%    100.0%      0.0%
 flops inhomo. stacks                           0       0.0%      0.0%      0.0%
 flops total                         3.345458E+15      67.6%     32.4%      0.0%
 flops max/rank                    221.791206E+12      66.6%     33.4%      0.0%
 matmuls inhomo. stacks                         0       0.0%      0.0%      0.0%
 matmuls total                        84626530804       0.0%    100.0%      0.0%
 number of processed stacks              91041033       3.7%     96.3%      0.0%
 average stack size                                     1.0     965.2       0.0
 marketing flops                     4.520572E+15
 -------------------------------------------------------------------------------
 # multiplications                          64338
 max memory usage/rank               2.051330E+09
 # max total images/rank                        1
 # max 3D layers                                1
 # MPI messages exchanged                 6176448
 MPI messages size (bytes):
  total size                        34.358100E+12
  min size                           0.000000E+00
  max size                          28.395648E+06
  average size                       5.562760E+06
 MPI breakdown and total messages size (bytes):
             size <=      128               23892                        0
       128 < size <=     8192                   0                        0
      8192 < size <=    32768                   0                        0
     32768 < size <=   131072                2172                240557688
    131072 < size <=  4194304             2623872            3958332629184
   4194304 < size <= 16777216             3215442           23070478973136
  16777216 < size                          311070            7327782362496
 -------------------------------------------------------------------------------

 MEMORY| Estimated peak process memory [MiB]                                1957

 -------------------------------------------------------------------------------
 -                                                                             -
 -                         MESSAGE PASSING PERFORMANCE                         -
 -                                                                             -
 -------------------------------------------------------------------------------

 ROUTINE             CALLS      AVE VOLUME [Bytes]
 MP_Group             2025
 MP_Bcast            21595                  21315.
 MP_Allreduce       411161                    241.
 MP_Sync                 4
 MP_Alltoall        280130               36681663.
 MP_SendRecv          7500                  25752.
 MP_ISendRecv       210930                 730080.
 MP_Wait           3456597
 MP_ISend          1143188                2383928.
 MP_IRecv          1143188                2389467.
 MP_Recv             17391                1388265.
 MP_Memory         2834276
 -------------------------------------------------------------------------------


 -------------------------------------------------------------------------------
 -                                                                             -
 -                           R E F E R E N C E S                               -
 -                                                                             -
 -------------------------------------------------------------------------------
 
 CP2K version 7.0 (Development Version), the CP2K developers group (2018).
 CP2K is freely available from https://www.cp2k.org/ .

 Schuett, Ole; Messmer, Peter; Hutter, Juerg; VandeVondele, Joost. 
 Electronic Structure Calculations on Graphics Processing Units, John Wiley & Sons, Ltd, 173-190 (2016). 
 GPU-Accelerated Sparse Matrix-Matrix Multiplication for Linear Scaling Density Functional Theory.
 http://dx.doi.org/10.1002/9781118670712.ch8


 Borstnik, U; VandeVondele, J; Weber, V; Hutter, J. 
 PARALLEL COMPUTING, 40 (5-6), 47-58 (2014). 
 Sparse matrix multiplication: The distributed block-compressed sparse
 row library.
 http://dx.doi.org/10.1016/j.parco.2014.03.012


 Hutter, J; Iannuzzi, M; Schiffmann, F; VandeVondele, J. 
 WILEY INTERDISCIPLINARY REVIEWS-COMPUTATIONAL MOLECULAR SCIENCE, 4 (1), 15-25 (2014). 
 CP2K: atomistic simulations of condensed matter systems.
 http://dx.doi.org/10.1002/wcms.1159


 Grimme, S; Ehrlich, S; Goerigk, L. 
 JOURNAL OF COMPUTATIONAL CHEMISTRY, 32, 1456 (2011). 
 Effect of the damping function in dispersion corrected density functional theory.
 http://dx.doi.org/10.1002/jcc.21759


 Grimme, S; Antony, J; Ehrlich, S; Krieg, H. 
 JOURNAL OF CHEMICAL PHYSICS, 132 (15), 154104 (2010). 
 A consistent and accurate ab initio parametrization of density
 functional dispersion correction (DFT-D) for the 94 elements H-Pu.
 http://dx.doi.org/10.1063/1.3382344


 VandeVondele, J; Hutter, J. 
 JOURNAL OF CHEMICAL PHYSICS, 127 (11), 114105 (2007). 
 Gaussian basis sets for accurate calculations on molecular systems in
 gas and condensed phases.
 http://dx.doi.org/10.1063/1.2770708


 Krack, M. 
 THEORETICAL CHEMISTRY ACCOUNTS, 114 (1-3), 145-152 (2005). 
 Pseudopotentials for H to Kr optimized for gradient-corrected
 exchange-correlation functionals.
 http://dx.doi.org/10.1007/s00214-005-0655-y


 VandeVondele, J; Krack, M; Mohamed, F; Parrinello, M; Chassaing, T;
 Hutter, J. COMPUTER PHYSICS COMMUNICATIONS, 167 (2), 103-128 (2005). 
 QUICKSTEP: Fast and accurate density functional calculations using a
 mixed Gaussian and plane waves approach.
 http://dx.doi.org/10.1016/j.cpc.2004.12.014


 Frigo, M; Johnson, SG. 
 PROCEEDINGS OF THE IEEE, 93 (2), 216-231 (2005). 
 The design and implementation of FFTW3.
 http://dx.doi.org/10.1109/JPROC.2004.840301


 Kolafa, J. 
 JOURNAL OF COMPUTATIONAL CHEMISTRY, 25 (3), 335-342 (2004). 
 Time-reversible always stable predictor-corrector method for molecular dynamics of polarizable molecules.
 http://dx.doi.org/10.1002/jcc.10385


 VandeVondele, J; Hutter, J. 
 JOURNAL OF CHEMICAL PHYSICS, 118 (10), 4365-4369 (2003). 
 An efficient orbital transformation method for electronic structure
 calculations.
 http://dx.doi.org/10.1063/1.1543154


 Hartwigsen, C; Goedecker, S; Hutter, J. 
 PHYSICAL REVIEW B, 58 (7), 3641-3662 (1998). 
 Relativistic separable dual-space Gaussian pseudopotentials from H to Rn.
 http://dx.doi.org/10.1103/PhysRevB.58.3641


 Lippert, G; Hutter, J; Parrinello, M. 
 MOLECULAR PHYSICS, 92 (3), 477-487 (1997). 
 A hybrid Gaussian and plane wave density functional scheme.
 http://dx.doi.org/10.1080/002689797170220


 Perdew, JP; Burke, K; Ernzerhof, M. 
 PHYSICAL REVIEW LETTERS, 77 (18), 3865-3868 (1996). 
 Generalized gradient approximation made simple.
 http://dx.doi.org/10.1103/PhysRevLett.77.3865


 Goedecker, S; Teter, M; Hutter, J. 
 PHYSICAL REVIEW B, 54 (3), 1703-1710 (1996). 
 Separable dual-space Gaussian pseudopotentials.
 http://dx.doi.org/10.1103/PhysRevB.54.1703


 -------------------------------------------------------------------------------
 -                                                                             -
 -                                T I M I N G                                  -
 -                                                                             -
 -------------------------------------------------------------------------------
 SUBROUTINE                       CALLS  ASD         SELF TIME        TOTAL TIME
                                MAXIMUM       AVERAGE  MAXIMUM  AVERAGE  MAXIMUM
 CP2K                                 1  1.0     0.27     0.82 75219.38 75220.56
 cp_geo_opt                           1  2.0     0.00     0.00 75212.38 75213.77
 geoopt_bfgs                          1  3.0     0.31     0.66 75212.38 75213.77
 cp_eval_at                         126  4.0     0.03     0.03 75112.84 75113.97
 qs_forces                          125  5.0     0.04     0.04 74933.73 74934.84
 qs_energies                        126  6.0     0.02     0.02 73012.66 73015.65
 scf_env_do_scf                     126  7.0     0.02     0.05 71343.54 71344.59
 scf_env_do_scf_inner_loop         3390  8.0     0.24     0.49 68163.59 68310.42
 rebuild_ks_matrix                 3515  9.9     0.04     0.04 44231.10 44340.93
 qs_ks_build_kohn_sham_matrix      3515 10.9     0.82     0.89 44231.07 44340.89
 qs_ks_update_qs_env               3571  9.0     0.07     0.08 42573.41 42679.40
 pw_transfer                      66916 13.6     8.66     9.72 32786.95 33064.20
 fft_wrap_pw1pw2                  59886 14.6     1.06     1.12 32508.37 32800.24
 fft_wrap_pw1pw2_150              38793 15.7  2490.59  2759.78 31067.05 31171.77
 qs_vxc_create                     3515 11.9     0.12     0.14 25299.19 25371.21
 xc_vxc_pw_create                  3515 12.9   296.52   325.30 25299.07 25371.07
 fft3d_ps                         59886 16.6 11217.37 11497.82 22424.69 23071.50
 dbcsr_multiply_generic           64338 14.0     7.57     7.97 14901.44 15114.24
 qs_rho_update_rho                 3516  9.0     0.05     0.06 14688.77 14766.15
 calculate_rho_elec                3516 10.0  6091.15  6437.53 14688.72 14766.10
 qs_scf_new_mos                    3390  9.0     0.05     0.06 13559.07 13718.56
 qs_scf_loop_do_ot                 3390 10.0     0.04     0.05 13559.02 13718.51
 sum_up_and_integrate              3515 11.9    70.06    75.15 13110.91 13115.02
 integrate_v_rspace                3515 12.9  7333.79  7751.38 13040.84 13046.34
 ot_scf_mini                       3390 11.0     0.31     0.34 12452.39 12612.50
 multiply_cannon                  64338 15.0    15.06    16.77 11890.19 12358.94
 xc_rho_set_and_dset_create        3515 13.9   117.25   129.89 11962.77 12021.90
 multiply_cannon_multrec         257352 16.0  9643.03 10315.79  9644.68 10317.45
 ot_mini                           3390 12.0     0.04     0.05  8360.09  8543.44
 density_rs2pw                     3516 11.0     0.26     0.29  7924.72  8188.13
 mp_alltoall_z22v                 59886 18.6  6413.14  7165.61  6413.14  7165.61
 x_to_yz                          31636 18.1  2660.36  2765.95  5970.84  6447.72
 yz_to_x                          28250 17.1  2132.10  2295.53  5234.75  5593.46
 qs_ot_get_derivative              3390 13.0     0.07     0.08  5345.73  5505.23
 pw_gather_p                      28250 16.1  4831.45  5344.76  4831.45  5344.76
 potential_pw2rs                   3515 13.9     6.17     6.54  4882.94  4893.21
 qs_ot_get_derivative_taylor       3243 14.0     0.20     0.23  3367.83  3520.27
 init_scf_loop                      181  8.0     0.01     0.01  3030.05  3030.32
 ot_diis_step                      3390 13.0     0.28     0.30  2970.48  2970.53
 rs_pw_transfer                   28375 13.4     0.70     0.77  2728.47  2965.62
 pw_scatter_p                     31636 17.1  2694.09  2824.65  2694.09  2824.65
 apply_preconditioner_dbcsr        3571 14.0     0.01     0.03  2619.04  2713.22
 apply_single                      3571 15.0     0.02     0.02  2619.03  2713.20
 xc_functional_eval                3515 14.9     0.07     0.08  2435.38  2491.99
 pbe_lda_eval                      3515 15.9  2435.32  2491.94  2435.32  2491.94
 mp_waitall_1                   3342093 17.5  2139.25  2298.02  2139.25  2298.02
 make_m2s                        128676 15.0     4.71     5.07  1838.95  1927.42
 qs_ks_update_qs_env_forces         125  6.0     0.00     0.00  1703.26  1706.90
 pw_derive                        21090 14.4  1403.85  1551.12  1403.85  1551.12
 make_images                     128676 16.0    22.95    23.85  1422.39  1523.06
 -------------------------------------------------------------------------------

 The number of warnings for this run is : 1
 
 -------------------------------------------------------------------------------
  **** **** ******  **  PROGRAM ENDED AT                 2023-10-14 14:16:58.407
 ***** ** ***  *** **   PROGRAM RAN ON                                sebnode129
 **    ****   ******    PROGRAM RAN BY                                    luehrs
 ***** **    ** ** **   PROGRAM PROCESS ID                               2499395
  **** **  *******  **  PROGRAM STOPPED IN /home/luehrs/PhD/Li-S_paper/Li-S-Surf
                                           ace_Reaction/Third_Lithiation_of_S8_S
                                           urface/Third_Lithiation_around_S8/Thi
                                           rd_Lithiation_L1/Third_Lithiation_par
                                           allel/3.S8_p
