     580
 i =      170, E =     -5912.8810701613
  S         8.9653200000        3.8189900000       23.0200350000
  S         4.1340400000       12.2505900000       23.0200350000
  S         1.5178700000        7.0354900000       29.1415350000
  S         6.3491800000        2.6010900000       29.1415350000
  S         1.5178700000        2.6010900000       20.6429350000
  S         6.3491800000        7.0354900000       20.6429350000
  S         6.7501800000        0.6024900000       29.1415350000
  S         1.1168700000        9.0340900000       29.1415350000
  S         6.7501800000        9.0340900000       20.6429350000
  S         1.1168700000        0.6024900000       20.6429350000
  S         3.7330100000       10.2519900000       23.0200350000
  S         9.3663200000        5.8175900000       23.0200350000
  S         7.4112400000        3.4703200000       21.7313350000
  S         5.6881200000       12.5992600000       21.7313350000
  S         3.0719800000        6.6868200000       27.8528350000
  S         4.7950700000        2.9497600000       27.8528350000
  S         3.0719800000        2.9497600000       21.9316350000
  S         4.7950700000        6.6868200000       21.9316350000
  S         8.3042600000        0.2538200000       27.8528350000
  S        10.0273800000        9.3827600000       27.8528350000
  S         8.3042600000        9.3827600000       21.9316350000
  S        10.0273800000        0.2538200000       21.9316350000
  S         2.1789300000        9.9033200000       21.7313350000
  S         0.4558100000        6.1662600000       21.7313350000
  S         8.2151100000        2.8212300000       19.9649150000
  S         4.8842200000        0.3823500000       19.9649150000
  S         2.2680800000        6.0377300000       26.0864150000
  S         5.5989700000        3.5988500000       26.0864150000
  S         2.2680800000        3.5988500000       23.6980550000
  S         5.5989700000        6.0377300000       23.6980550000
  S         7.5003900000       12.4707300000       26.0864150000
  S         0.3666600000       10.0318500000       26.0864150000
  S         7.5003900000       10.0318500000       23.6980550000
  S         0.3666600000       12.4707300000       23.6980550000
  S         2.9828300000        9.2542300000       19.9649150000
  S        10.1165300000        6.8153500000       19.9649150000
  S         8.2340700000        4.3978300000       18.6612850000
  S         4.8652900000       11.6717500000       18.6612850000
  S         2.2491500000        7.6143300000       24.7827850000
  S         5.6179000000        2.0222500000       24.7827850000
  S         2.2491500000        2.0222500000       25.0016850000
  S         5.6179000000        7.6143300000       25.0016850000
  S         7.4814300000        1.1813300000       24.7827850000
  S         0.3856200000        8.4552500000       24.7827850000
  S         7.4814300000        8.4552500000       25.0016850000
  S         0.3856200000        1.1813300000       25.0016850000
  S         3.0017600000       10.8308300000       18.6612850000
  S        10.0976000000        5.2387500000       18.6612850000
  S         8.9653200000       16.6849900000       23.0200350000
  S         4.1340400000       25.1165900000       23.0200350000
  S         1.5178700000       19.9014900000       29.1415350000
  S         6.3491800000       15.4670900000       29.1415350000
  S         1.5178700000       15.4670900000       20.6429350000
  S         6.3491800000       19.9014900000       20.6429350000
  S         6.7501800000       13.4684900000       29.1415350000
  S         1.1168700000       21.9000900000       29.1415350000
  S         6.7501800000       21.9000900000       20.6429350000
  S         1.1168700000       13.4684900000       20.6429350000
  S         3.7330100000       23.1179900000       23.0200350000
  S         9.3663200000       18.6835900000       23.0200350000
  S         7.4112400000       16.3363200000       21.7313350000
  S         5.6881200000       25.4652600000       21.7313350000
  S         3.0719800000       19.5528200000       27.8528350000
  S         4.7950700000       15.8157600000       27.8528350000
  S         3.0719800000       15.8157600000       21.9316350000
  S         4.7950700000       19.5528200000       21.9316350000
  S         8.3042600000       13.1198200000       27.8528350000
  S        10.0273800000       22.2487600000       27.8528350000
  S         8.3042600000       22.2487600000       21.9316350000
  S        10.0273800000       13.1198200000       21.9316350000
  S         2.1789300000       22.7693200000       21.7313350000
  S         0.4558100000       19.0322600000       21.7313350000
  S         8.2151100000       15.6872300000       19.9649150000
  S         4.8842200000       13.2483500000       19.9649150000
  S         2.2680800000       18.9037300000       26.0864150000
  S         5.5989700000       16.4648500000       26.0864150000
  S         2.2680800000       16.4648500000       23.6980550000
  S         5.5989700000       18.9037300000       23.6980550000
  S         7.5003900000       25.3367300000       26.0864150000
  S         0.3666600000       22.8978500000       26.0864150000
  S         7.5003900000       22.8978500000       23.6980550000
  S         0.3666600000       25.3367300000       23.6980550000
  S         2.9828300000       22.1202300000       19.9649150000
  S        10.1165300000       19.6813500000       19.9649150000
  S         8.2340700000       17.2638300000       18.6612850000
  S         4.8652900000       24.5377500000       18.6612850000
  S         2.2491500000       20.4803300000       24.7827850000
  S         5.6179000000       14.8882500000       24.7827850000
  S         2.2491500000       14.8882500000       25.0016850000
  S         5.6179000000       20.4803300000       25.0016850000
  S         7.4814300000       14.0473300000       24.7827850000
  S         0.3856200000       21.3212500000       24.7827850000
  S         7.4814300000       21.3212500000       25.0016850000
  S         0.3856200000       14.0473300000       25.0016850000
  S         3.0017600000       23.6968300000       18.6612850000
  S        10.0976000000       18.1047500000       18.6612850000
  S        19.4299100000        3.8189900000       23.0200350000
  S        14.5986300000       12.2505900000       23.0200350000
  S        11.9824900000        7.0354900000       29.1415350000
  S        16.8137700000        2.6010900000       29.1415350000
  S        11.9824900000        2.6010900000       20.6429350000
  S        16.8137700000        7.0354900000       20.6429350000
  S        17.2147700000        0.6024900000       29.1415350000
  S        11.5814600000        9.0340900000       29.1415350000
  S        17.2147700000        9.0340900000       20.6429350000
  S        11.5814600000        0.6024900000       20.6429350000
  S        14.1976300000       10.2519900000       23.0200350000
  S        19.8309400000        5.8175900000       23.0200350000
  S        17.8758300000        3.4703200000       21.7313350000
  S        16.1527100000       12.5992600000       21.7313350000
  S        13.5365700000        6.6868200000       27.8528350000
  S        15.2596900000        2.9497600000       27.8528350000
  S        13.5365700000        2.9497600000       21.9316350000
  S        15.2596900000        6.6868200000       21.9316350000
  S        18.7688800000        0.2538200000       27.8528350000
  S        20.4919700000        9.3827600000       27.8528350000
  S        18.7688800000        9.3827600000       21.9316350000
  S        20.4919700000        0.2538200000       21.9316350000
  S        12.6435200000        9.9033200000       21.7313350000
  S        10.9204300000        6.1662600000       21.7313350000
  S        18.6797300000        2.8212300000       19.9649150000
  S        15.3488400000        0.3823500000       19.9649150000
  S        12.7326700000        6.0377300000       26.0864150000
  S        16.0635600000        3.5988500000       26.0864150000
  S        12.7326700000        3.5988500000       23.6980550000
  S        16.0635600000        6.0377300000       23.6980550000
  S        17.9649800000       12.4707300000       26.0864150000
  S        10.8312800000       10.0318500000       26.0864150000
  S        17.9649800000       10.0318500000       23.6980550000
  S        10.8312800000       12.4707300000       23.6980550000
  S        13.4474200000        9.2542300000       19.9649150000
  S        20.5811200000        6.8153500000       19.9649150000
  S        18.6986600000        4.3978300000       18.6612850000
  S        15.3298800000       11.6717500000       18.6612850000
  S        12.7137400000        7.6143300000       24.7827850000
  S        16.0825200000        2.0222500000       24.7827850000
  S        12.7137400000        2.0222500000       25.0016850000
  S        16.0825200000        7.6143300000       25.0016850000
  S        17.9460500000        1.1813300000       24.7827850000
  S        10.8502100000        8.4552500000       24.7827850000
  S        17.9460500000        8.4552500000       25.0016850000
  S        10.8502100000        1.1813300000       25.0016850000
  S        13.4663500000       10.8308300000       18.6612850000
  S        20.5621900000        5.2387500000       18.6612850000
  S        19.4299100000       16.6849900000       23.0200350000
  S        14.5986300000       25.1165900000       23.0200350000
  S        11.9824900000       19.9014900000       29.1415350000
  S        16.8137700000       15.4670900000       29.1415350000
  S        11.9824900000       15.4670900000       20.6429350000
  S        16.8137700000       19.9014900000       20.6429350000
  S        17.2147700000       13.4684900000       29.1415350000
  S        11.5814600000       21.9000900000       29.1415350000
  S        17.2147700000       21.9000900000       20.6429350000
  S        11.5814600000       13.4684900000       20.6429350000
  S        14.1976300000       23.1179900000       23.0200350000
  S        19.8309400000       18.6835900000       23.0200350000
  S        17.8758300000       16.3363200000       21.7313350000
  S        16.1527100000       25.4652600000       21.7313350000
  S        13.5365700000       19.5528200000       27.8528350000
  S        15.2596900000       15.8157600000       27.8528350000
  S        13.5365700000       15.8157600000       21.9316350000
  S        15.2596900000       19.5528200000       21.9316350000
  S        18.7688800000       13.1198200000       27.8528350000
  S        20.4919700000       22.2487600000       27.8528350000
  S        18.7688800000       22.2487600000       21.9316350000
  S        20.4919700000       13.1198200000       21.9316350000
  S        12.6435200000       22.7693200000       21.7313350000
  S        10.9204300000       19.0322600000       21.7313350000
  S        18.6797300000       15.6872300000       19.9649150000
  S        15.3488400000       13.2483500000       19.9649150000
  S        12.7326700000       18.9037300000       26.0864150000
  S        16.0635600000       16.4648500000       26.0864150000
  S        12.7326700000       16.4648500000       23.6980550000
  S        16.0635600000       18.9037300000       23.6980550000
  S        17.9649800000       25.3367300000       26.0864150000
  S        10.8312800000       22.8978500000       26.0864150000
  S        17.9649800000       22.8978500000       23.6980550000
  S        10.8312800000       25.3367300000       23.6980550000
  S        13.4474200000       22.1202300000       19.9649150000
  S        20.5811200000       19.6813500000       19.9649150000
  S        18.6986600000       17.2638300000       18.6612850000
  S        15.3298800000       24.5377500000       18.6612850000
  S        12.7137400000       20.4803300000       24.7827850000
  S        16.0825200000       14.8882500000       24.7827850000
  S        12.7137400000       14.8882500000       25.0016850000
  S        16.0825200000       20.4803300000       25.0016850000
  S        17.9460500000       14.0473300000       24.7827850000
  S        10.8502100000       21.3212500000       24.7827850000
  S        17.9460500000       21.3212500000       25.0016850000
  S        10.8502100000       14.0473300000       25.0016850000
  S        13.4663500000       23.6968300000       18.6612850000
  S        20.5621900000       18.1047500000       18.6612850000
  S        29.8945300000        3.8189900000       23.0200350000
  S        25.0632200000       12.2505900000       23.0200350000
  S        22.4470800000        7.0354900000       29.1415350000
  S        27.2783600000        2.6010900000       29.1415350000
  S        22.4470800000        2.6010900000       20.6429350000
  S        27.2783600000        7.0354900000       20.6429350000
  S        27.6793900000        0.6024900000       29.1415350000
  S        22.0460800000        9.0340900000       29.1415350000
  S        27.6793900000        9.0340900000       20.6429350000
  S        22.0460800000        0.6024900000       20.6429350000
  S        24.6622200000       10.2519900000       23.0200350000
  S        30.2955300000        5.8175900000       23.0200350000
  S        28.3404200000        3.4703200000       21.7313350000
  S        26.6173300000       12.5992600000       21.7313350000
  S        24.0011600000        6.6868200000       27.8528350000
  S        25.7242800000        2.9497600000       27.8528350000
  S        24.0011600000        2.9497600000       21.9316350000
  S        25.7242800000        6.6868200000       21.9316350000
  S        29.2334700000        0.2538200000       27.8528350000
  S        30.9565900000        9.3827600000       27.8528350000
  S        29.2334700000        9.3827600000       21.9316350000
  S        30.9565900000        0.2538200000       21.9316350000
  S        23.1081400000        9.9033200000       21.7313350000
  S        21.3850200000        6.1662600000       21.7313350000
  S        29.1443200000        2.8212300000       19.9649150000
  S        25.8134300000        0.3823500000       19.9649150000
  S        23.1972900000        6.0377300000       26.0864150000
  S        26.5281800000        3.5988500000       26.0864150000
  S        23.1972900000        3.5988500000       23.6980550000
  S        26.5281800000        6.0377300000       23.6980550000
  S        28.4295700000       12.4707300000       26.0864150000
  S        21.2958700000       10.0318500000       26.0864150000
  S        28.4295700000       10.0318500000       23.6980550000
  S        21.2958700000       12.4707300000       23.6980550000
  S        23.9120100000        9.2542300000       19.9649150000
  S        31.0457400000        6.8153500000       19.9649150000
  S        29.1632500000        4.3978300000       18.6612850000
  S        25.7945000000       11.6717500000       18.6612850000
  S        23.1783300000        7.6143300000       24.7827850000
  S        26.5471100000        2.0222500000       24.7827850000
  S        23.1783300000        2.0222500000       25.0016850000
  S        26.5471100000        7.6143300000       25.0016850000
  S        28.4106400000        1.1813300000       24.7827850000
  S        21.3148000000        8.4552500000       24.7827850000
  S        28.4106400000        8.4552500000       25.0016850000
  S        21.3148000000        1.1813300000       25.0016850000
  S        23.9309700000       10.8308300000       18.6612850000
  S        31.0267800000        5.2387500000       18.6612850000
  S        29.8945300000       16.6849900000       23.0200350000
  S        25.0632200000       25.1165900000       23.0200350000
  S        22.4470800000       19.9014900000       29.1415350000
  S        27.2783600000       15.4670900000       29.1415350000
  S        22.4470800000       15.4670900000       20.6429350000
  S        27.2783600000       19.9014900000       20.6429350000
  S        27.6793900000       13.4684900000       29.1415350000
  S        22.0460800000       21.9000900000       29.1415350000
  S        27.6793900000       21.9000900000       20.6429350000
  S        22.0460800000       13.4684900000       20.6429350000
  S        24.6622200000       23.1179900000       23.0200350000
  S        30.2955300000       18.6835900000       23.0200350000
  S        28.3404200000       16.3363200000       21.7313350000
  S        26.6173300000       25.4652600000       21.7313350000
  S        24.0011600000       19.5528200000       27.8528350000
  S        25.7242800000       15.8157600000       27.8528350000
  S        24.0011600000       15.8157600000       21.9316350000
  S        25.7242800000       19.5528200000       21.9316350000
  S        29.2334700000       13.1198200000       27.8528350000
  S        30.9565900000       22.2487600000       27.8528350000
  S        29.2334700000       22.2487600000       21.9316350000
  S        30.9565900000       13.1198200000       21.9316350000
  S        23.1081400000       22.7693200000       21.7313350000
  S        21.3850200000       19.0322600000       21.7313350000
  S        29.1443200000       15.6872300000       19.9649150000
  S        25.8134300000       13.2483500000       19.9649150000
  S        23.1972900000       18.9037300000       26.0864150000
  S        26.5281800000       16.4648500000       26.0864150000
  S        23.1972900000       16.4648500000       23.6980550000
  S        26.5281800000       18.9037300000       23.6980550000
  S        28.4295700000       25.3367300000       26.0864150000
  S        21.2958700000       22.8978500000       26.0864150000
  S        28.4295700000       22.8978500000       23.6980550000
  S        21.2958700000       25.3367300000       23.6980550000
  S        23.9120100000       22.1202300000       19.9649150000
  S        31.0457400000       19.6813500000       19.9649150000
  S        29.1632500000       17.2638300000       18.6612850000
  S        25.7945000000       24.5377500000       18.6612850000
  S        23.1783300000       20.4803300000       24.7827850000
  S        26.5471100000       14.8882500000       24.7827850000
  S        23.1783300000       14.8882500000       25.0016850000
  S        26.5471100000       20.4803300000       25.0016850000
  S        28.4106400000       14.0473300000       24.7827850000
  S        21.3148000000       21.3212500000       24.7827850000
  S        28.4106400000       21.3212500000       25.0016850000
  S        21.3148000000       14.0473300000       25.0016850000
  S        23.9309700000       23.6968300000       18.6612850000
  S        31.0267800000       18.1047500000       18.6612850000
  S         1.5263028737        9.1052839253       33.4158632504
  S         6.3478230139        0.6173310296       33.2359532362
  S         8.9502709252        5.8636633128       26.8728571510
  S         4.1243715411       10.2472237342       26.8782311028
  S         9.4072113837       12.1406641691       36.9168635041
  S         4.0481598888        5.8217734142       35.6506472048
  S         3.7252123797       12.2704478129       26.8762027756
  S         9.3490301021        3.8413684553       26.8351397350
  S         3.6775103181        3.7884433697       35.6083313213
  S        10.9375436670       13.2970015342       36.0733790603
  S         6.7232169083        2.6464412345       33.2757009942
  S         1.1318275928        7.0881404345       33.2069928121
  S         2.9816022460        9.3784147616       34.8631249490
  S         4.7635286261        0.1900430653       34.5010967440
  S         7.4008484104        6.2446196878       28.1941420168
  S         5.6969857330        9.8520618271       28.1677101007
  S         7.9976522522        9.4446021303       34.7874937888
  S         5.6276350769        6.2782961681       34.3935377307
  S         2.1724557104       12.6746043125       28.1863096126
  S         0.4784028413        3.4043167803       28.1268216275
  S         2.1571204719        3.3887536627       34.2629059625
  S         0.4461626623       12.6584605559       34.3020347167
  S         8.2793776856        3.0279058328       34.5891587975
  S        10.1284653118        6.4246158279       34.4491809968
  S         2.0815355617        9.8350524096       36.6735062687
  S         5.3975540720       11.8633612229       36.4312882227
  S         8.1888964449        6.8420153560       30.0112711092
  S         4.9392992698        9.2420202118       29.9917692853
  S         8.4266305574        9.0696846086       32.7945119187
  S         4.8846056662        6.9163346215       32.5734684618
  S         2.9562008920        0.3897100178       29.9729379575
  S        10.1734579280        2.7797832760       29.9208007931
  S         2.9841027468        2.8210581350       32.4526038370
  S        10.1013788315        0.4282744755       32.4290004613
  S         7.5106819894        3.6010557368       36.4265030645
  S         0.0363006348        5.8317918408       36.1539213594
  S         1.8840295903        8.1263336367       37.8194066589
  S         5.5357372521        1.1438509227       37.6623940642
  S         8.2502156639        5.2165714528       31.2899219330
  S         4.9025638166       10.8475015219       31.2967017666
  S         8.1738503423       10.7404853786       31.6602400246
  S         4.8839706939        5.3465894584       31.2221853325
  S         3.0193965019       11.6929417401       31.3106901440
  S        10.1271543083        4.3550318871       31.2611574758
  S         3.0270050258        4.4428802808       31.1682252283
  S         9.9723623345       11.8191874002       31.3989775505
  S         7.4349648290        1.9737902758       37.6998827413
  S        -0.0147086247        7.3272655758       37.5826046645
  S         1.4865516638       21.8283245781       33.2680146468
  S         6.3271462379       13.3533888622       33.5571292125
  S         8.9568557422       18.6964752642       26.8883968275
  S         4.1401224184       23.0961676077       26.8536132483
  S         9.0142652268       23.1666100906       35.6183309977
  S         4.2705269199       18.8311697854       35.7576595777
  S         3.7446641733       25.1193503800       26.8568699261
  S         9.3616189413       16.6749545567       26.8768685455
  S         3.7590850537       16.8374658936       36.0075459441
  S         9.3849594929       25.1978714443       35.5811586874
  S         6.8441533986       15.3560371440       33.5605211302
  S         1.0901153748       19.8045310331       33.3861151335
  S         3.0790515419       22.2877113710       34.5101079002
  S         4.6768835570       12.8810196194       34.7926051644
  S         7.3876294273       19.0833049120       28.1849278487
  S         5.6974434410       22.6910309154       28.1572632339
  S         7.4457755629       22.7267645578       34.3397190448
  S         5.7501879848       19.0525321285       34.3423628686
  S         2.1804192715       25.5147636998       28.1548311056
  S         0.4675348946       16.2760118206       28.1418247165
  S         2.2477339020       16.2166861655       34.7228671873
  S         0.4211552670       25.5274439254       34.3466732273
  S         8.5243965003       15.6620651790       34.8286497338
  S        10.1024019315       19.6421040369       34.8334152744
  S         2.3670569366       22.9741662970       36.3294837936
  S         5.4940908678       25.2921286977       36.3339163573
  S         8.1502966173       19.6849940208       30.0101455548
  S         4.9136291926       22.0599448878       29.9647385675
  S         8.2086669436       22.0732945943       32.5304717826
  S         4.8529099369       19.5621145519       32.5425807657
  S         2.9610528085       13.2919071285       29.9975102118
  S        10.1390553264       15.6348602318       29.9925506859
  S         3.0343996962       15.4739159059       32.9684167164
  S        10.1520150885       13.3403515182       32.7411082111
  S         8.1201742114       17.0666701733       36.2429571103
  S         0.2901783186       18.9603897936       36.5606012914
  S         2.3143122580       21.4274024158       37.7010757650
  S         5.6698812163       13.1234368164       38.0486924175
  S         8.1975480602       18.0768653289       31.3156394100
  S         4.8641416554       23.6478205960       31.2893647364
  S         8.2265472558       23.6379367467       31.1738232271
  S         4.8018071890       17.8708945237       31.3535028914
  S         2.9924952597       24.5206144718       31.2823659925
  S        10.0753676595       17.2235128852       31.3160089430
  S         2.9663541741       16.9495937952       31.5098693364
  S        10.0850092211       24.5364409049       31.1462279788
  S         7.4232295000       16.2474688552       38.0091504184
  S         0.4037768845       20.6264516198       37.7798601881
  S        12.0002275621        9.0163520992       33.4640681119
  S        16.8122461657        0.5079592033       33.4100482729
  S        19.4287360928        5.8272245224       26.8440218902
  S        14.6157367722       10.2559024411       26.8479214926
  S        19.4068438905       10.2462090513       35.5934554131
  S        14.6765323271        5.8073659170       35.6874921097
  S        14.2121348163       12.2778374721       26.8714034704
  S        19.8213522769        3.8037215020       26.8347119096
  S        14.2996381396        3.7751503428       35.6747897827
  S        19.8035194902       12.2731498867       35.5970219002
  S        17.2181262929        2.5254783489       33.2384281696
  S        11.7692745954        6.9557920640       33.3260252373
  S        13.5356625918        9.4250056412       34.7976154914
  S        15.3203452695        0.2230533504       34.8176183859
  S        17.8726238993        6.2237670564       28.1519465124
  S        16.1711634297        9.8506928360       28.1558079950
  S        17.8601460416        9.8465330414       34.2770371389
  S        16.2076213503        6.2360907744       34.3620564039
  S        12.6223844620       12.6535796133       28.1439914866
  S        10.9283373514        3.4268383000       28.1089131981
  S        12.7319602560        3.3620231444       34.3876864019
  S        11.4824452684       12.5619002912       34.2804421072
  S        18.8745838394        2.9910726125       34.3919577657
  S        20.4681630555        6.6679734124       34.6794523982
  S        12.6538842759        9.9524242235       36.6053886883
  S        15.7919130501       12.3016457020       36.0984376130
  S        18.6627603206        6.8444696600       29.9589991822
  S        15.3870926614        9.1699282663       29.9426686298
  S        18.6469112158        9.2346059796       32.4644954600
  S        15.4086332176        6.8499046508       32.5539108961
  S        13.4105955497        0.4622752286       29.9218902807
  S        20.6120145677        2.7786224029       29.9431067127
  S        13.4842270989        2.7666291824       32.5532956146
  S        20.6488857005        0.3892991964       32.5364046374
  S        18.2590688469        3.7262842855       36.2256016202
  S        10.6989578833        5.8652376759       36.3517355180
  S        12.4601464417        8.3209868811       37.8788852469
  S        16.3586175699        1.4237096080       37.8189494066
  S        18.7235542383        5.2537699629       31.2799750047
  S        15.2583998535       10.7260577055       31.3031218405
  S        18.6785250734       10.8333761139       31.1512596652
  S        15.3595214325        5.2561663663       31.2316719626
  S        13.3615116724       11.5429038255       31.2359835265
  S        20.5933263888        4.3788524126       31.2527263651
  S        13.4935905028        4.3741890568       31.2490806917
  S        20.5476840048       11.7107617974       31.1544320284
  S        18.2680294038        2.2096121127       37.6325100065
  S        10.5762656538        7.5125511907       37.6118083497
  S        11.9816593556       21.8803655029       33.1568028083
  S        16.8809104167       13.5773904802       33.1597949475
  S        19.4401002821       18.7011362049       26.8313166538
  S        14.5791040073       23.1014500994       26.8382576173
  S        19.4430295832       23.0823140991       35.6525576007
  S        14.6291375175       18.7399631867       35.6476020222
  S        14.1852173446       25.1247494003       26.8257571518
  S        19.8328833470       16.6776572125       26.8332059539
  S        14.1672580011       16.7238435605       35.6663003587
  S        19.8785816234       25.1038015515       35.6586616750
  S        17.2779760297       15.5904651847       33.3931976503
  S        11.5720650014       19.8702330788       33.3967310114
  S        13.6495344043       22.3814954365       34.2794849991
  S        15.2054903783       13.0886637514       34.2751588244
  S        17.8770383370       19.1071537479       28.1274631521
  S        16.1468039718       22.7074659238       28.1318331992
  S        17.8761543931       22.7081119911       34.3545102251
  S        16.1854299146       19.0895377190       34.3305002872
  S        12.6258724812       25.5342775835       28.1269927174
  S        10.9172429733       16.2747567919       28.1845920513
  S        12.5952713716       16.3587556622       34.3720465711
  S        10.9149945867       25.5966649576       34.2452776651
  S        18.7527332750       15.8424314792       34.8263293013
  S        20.4349144627       19.4735832100       34.3558663341
  S        13.0545980641       23.1815085716       36.0919148002
  S        16.1701954194       25.4645629407       36.6440770629
  S        18.6543196860       19.7097283284       29.9462114393
  S        15.3777178743       22.1348948399       29.9642318713