     580
 i =      124, E =     -5912.8836158854
  S         8.9653200000        3.8189900000       23.4579132446
  S         4.1340400000       12.2505900000       23.4579132446
  S         1.5178700000        7.0354900000       29.5794132447
  S         6.3491800000        2.6010900000       29.5794132447
  S         1.5178700000        2.6010900000       21.0808132446
  S         6.3491800000        7.0354900000       21.0808132446
  S         6.7501800000        0.6024900000       29.5794132447
  S         1.1168700000        9.0340900000       29.5794132447
  S         6.7501800000        9.0340900000       21.0808132446
  S         1.1168700000        0.6024900000       21.0808132446
  S         3.7330100000       10.2519900000       23.4579132446
  S         9.3663200000        5.8175900000       23.4579132446
  S         7.4112400000        3.4703200000       22.1692132446
  S         5.6881200000       12.5992600000       22.1692132446
  S         3.0719800000        6.6868200000       28.2907132446
  S         4.7950700000        2.9497600000       28.2907132446
  S         3.0719800000        2.9497600000       22.3695132446
  S         4.7950700000        6.6868200000       22.3695132446
  S         8.3042600000        0.2538200000       28.2907132446
  S        10.0273800000        9.3827600000       28.2907132446
  S         8.3042600000        9.3827600000       22.3695132446
  S        10.0273800000        0.2538200000       22.3695132446
  S         2.1789300000        9.9033200000       22.1692132446
  S         0.4558100000        6.1662600000       22.1692132446
  S         8.2151100000        2.8212300000       20.4027932446
  S         4.8842200000        0.3823500000       20.4027932446
  S         2.2680800000        6.0377300000       26.5242932446
  S         5.5989700000        3.5988500000       26.5242932446
  S         2.2680800000        3.5988500000       24.1359332446
  S         5.5989700000        6.0377300000       24.1359332446
  S         7.5003900000       12.4707300000       26.5242932446
  S         0.3666600000       10.0318500000       26.5242932446
  S         7.5003900000       10.0318500000       24.1359332446
  S         0.3666600000       12.4707300000       24.1359332446
  S         2.9828300000        9.2542300000       20.4027932446
  S        10.1165300000        6.8153500000       20.4027932446
  S         8.2340700000        4.3978300000       19.0991632446
  S         4.8652900000       11.6717500000       19.0991632446
  S         2.2491500000        7.6143300000       25.2206632446
  S         5.6179000000        2.0222500000       25.2206632446
  S         2.2491500000        2.0222500000       25.4395632446
  S         5.6179000000        7.6143300000       25.4395632446
  S         7.4814300000        1.1813300000       25.2206632446
  S         0.3856200000        8.4552500000       25.2206632446
  S         7.4814300000        8.4552500000       25.4395632446
  S         0.3856200000        1.1813300000       25.4395632446
  S         3.0017600000       10.8308300000       19.0991632446
  S        10.0976000000        5.2387500000       19.0991632446
  S         8.9653200000       16.6849900000       23.4579132446
  S         4.1340400000       25.1165900000       23.4579132446
  S         1.5178700000       19.9014900000       29.5794132447
  S         6.3491800000       15.4670900000       29.5794132447
  S         1.5178700000       15.4670900000       21.0808132446
  S         6.3491800000       19.9014900000       21.0808132446
  S         6.7501800000       13.4684900000       29.5794132447
  S         1.1168700000       21.9000900000       29.5794132447
  S         6.7501800000       21.9000900000       21.0808132446
  S         1.1168700000       13.4684900000       21.0808132446
  S         3.7330100000       23.1179900000       23.4579132446
  S         9.3663200000       18.6835900000       23.4579132446
  S         7.4112400000       16.3363200000       22.1692132446
  S         5.6881200000       25.4652600000       22.1692132446
  S         3.0719800000       19.5528200000       28.2907132446
  S         4.7950700000       15.8157600000       28.2907132446
  S         3.0719800000       15.8157600000       22.3695132446
  S         4.7950700000       19.5528200000       22.3695132446
  S         8.3042600000       13.1198200000       28.2907132446
  S        10.0273800000       22.2487600000       28.2907132446
  S         8.3042600000       22.2487600000       22.3695132446
  S        10.0273800000       13.1198200000       22.3695132446
  S         2.1789300000       22.7693200000       22.1692132446
  S         0.4558100000       19.0322600000       22.1692132446
  S         8.2151100000       15.6872300000       20.4027932446
  S         4.8842200000       13.2483500000       20.4027932446
  S         2.2680800000       18.9037300000       26.5242932446
  S         5.5989700000       16.4648500000       26.5242932446
  S         2.2680800000       16.4648500000       24.1359332446
  S         5.5989700000       18.9037300000       24.1359332446
  S         7.5003900000       25.3367300000       26.5242932446
  S         0.3666600000       22.8978500000       26.5242932446
  S         7.5003900000       22.8978500000       24.1359332446
  S         0.3666600000       25.3367300000       24.1359332446
  S         2.9828300000       22.1202300000       20.4027932446
  S        10.1165300000       19.6813500000       20.4027932446
  S         8.2340700000       17.2638300000       19.0991632446
  S         4.8652900000       24.5377500000       19.0991632446
  S         2.2491500000       20.4803300000       25.2206632446
  S         5.6179000000       14.8882500000       25.2206632446
  S         2.2491500000       14.8882500000       25.4395632446
  S         5.6179000000       20.4803300000       25.4395632446
  S         7.4814300000       14.0473300000       25.2206632446
  S         0.3856200000       21.3212500000       25.2206632446
  S         7.4814300000       21.3212500000       25.4395632446
  S         0.3856200000       14.0473300000       25.4395632446
  S         3.0017600000       23.6968300000       19.0991632446
  S        10.0976000000       18.1047500000       19.0991632446
  S        19.4299100000        3.8189900000       23.4579132446
  S        14.5986300000       12.2505900000       23.4579132446
  S        11.9824900000        7.0354900000       29.5794132447
  S        16.8137700000        2.6010900000       29.5794132447
  S        11.9824900000        2.6010900000       21.0808132446
  S        16.8137700000        7.0354900000       21.0808132446
  S        17.2147700000        0.6024900000       29.5794132447
  S        11.5814600000        9.0340900000       29.5794132447
  S        17.2147700000        9.0340900000       21.0808132446
  S        11.5814600000        0.6024900000       21.0808132446
  S        14.1976300000       10.2519900000       23.4579132446
  S        19.8309400000        5.8175900000       23.4579132446
  S        17.8758300000        3.4703200000       22.1692132446
  S        16.1527100000       12.5992600000       22.1692132446
  S        13.5365700000        6.6868200000       28.2907132446
  S        15.2596900000        2.9497600000       28.2907132446
  S        13.5365700000        2.9497600000       22.3695132446
  S        15.2596900000        6.6868200000       22.3695132446
  S        18.7688800000        0.2538200000       28.2907132446
  S        20.4919700000        9.3827600000       28.2907132446
  S        18.7688800000        9.3827600000       22.3695132446
  S        20.4919700000        0.2538200000       22.3695132446
  S        12.6435200000        9.9033200000       22.1692132446
  S        10.9204300000        6.1662600000       22.1692132446
  S        18.6797300000        2.8212300000       20.4027932446
  S        15.3488400000        0.3823500000       20.4027932446
  S        12.7326700000        6.0377300000       26.5242932446
  S        16.0635600000        3.5988500000       26.5242932446
  S        12.7326700000        3.5988500000       24.1359332446
  S        16.0635600000        6.0377300000       24.1359332446
  S        17.9649800000       12.4707300000       26.5242932446
  S        10.8312800000       10.0318500000       26.5242932446
  S        17.9649800000       10.0318500000       24.1359332446
  S        10.8312800000       12.4707300000       24.1359332446
  S        13.4474200000        9.2542300000       20.4027932446
  S        20.5811200000        6.8153500000       20.4027932446
  S        18.6986600000        4.3978300000       19.0991632446
  S        15.3298800000       11.6717500000       19.0991632446
  S        12.7137400000        7.6143300000       25.2206632446
  S        16.0825200000        2.0222500000       25.2206632446
  S        12.7137400000        2.0222500000       25.4395632446
  S        16.0825200000        7.6143300000       25.4395632446
  S        17.9460500000        1.1813300000       25.2206632446
  S        10.8502100000        8.4552500000       25.2206632446
  S        17.9460500000        8.4552500000       25.4395632446
  S        10.8502100000        1.1813300000       25.4395632446
  S        13.4663500000       10.8308300000       19.0991632446
  S        20.5621900000        5.2387500000       19.0991632446
  S        19.4299100000       16.6849900000       23.4579132446
  S        14.5986300000       25.1165900000       23.4579132446
  S        11.9824900000       19.9014900000       29.5794132447
  S        16.8137700000       15.4670900000       29.5794132447
  S        11.9824900000       15.4670900000       21.0808132446
  S        16.8137700000       19.9014900000       21.0808132446
  S        17.2147700000       13.4684900000       29.5794132447
  S        11.5814600000       21.9000900000       29.5794132447
  S        17.2147700000       21.9000900000       21.0808132446
  S        11.5814600000       13.4684900000       21.0808132446
  S        14.1976300000       23.1179900000       23.4579132446
  S        19.8309400000       18.6835900000       23.4579132446
  S        17.8758300000       16.3363200000       22.1692132446
  S        16.1527100000       25.4652600000       22.1692132446
  S        13.5365700000       19.5528200000       28.2907132446
  S        15.2596900000       15.8157600000       28.2907132446
  S        13.5365700000       15.8157600000       22.3695132446
  S        15.2596900000       19.5528200000       22.3695132446
  S        18.7688800000       13.1198200000       28.2907132446
  S        20.4919700000       22.2487600000       28.2907132446
  S        18.7688800000       22.2487600000       22.3695132446
  S        20.4919700000       13.1198200000       22.3695132446
  S        12.6435200000       22.7693200000       22.1692132446
  S        10.9204300000       19.0322600000       22.1692132446
  S        18.6797300000       15.6872300000       20.4027932446
  S        15.3488400000       13.2483500000       20.4027932446
  S        12.7326700000       18.9037300000       26.5242932446
  S        16.0635600000       16.4648500000       26.5242932446
  S        12.7326700000       16.4648500000       24.1359332446
  S        16.0635600000       18.9037300000       24.1359332446
  S        17.9649800000       25.3367300000       26.5242932446
  S        10.8312800000       22.8978500000       26.5242932446
  S        17.9649800000       22.8978500000       24.1359332446
  S        10.8312800000       25.3367300000       24.1359332446
  S        13.4474200000       22.1202300000       20.4027932446
  S        20.5811200000       19.6813500000       20.4027932446
  S        18.6986600000       17.2638300000       19.0991632446
  S        15.3298800000       24.5377500000       19.0991632446
  S        12.7137400000       20.4803300000       25.2206632446
  S        16.0825200000       14.8882500000       25.2206632446
  S        12.7137400000       14.8882500000       25.4395632446
  S        16.0825200000       20.4803300000       25.4395632446
  S        17.9460500000       14.0473300000       25.2206632446
  S        10.8502100000       21.3212500000       25.2206632446
  S        17.9460500000       21.3212500000       25.4395632446
  S        10.8502100000       14.0473300000       25.4395632446
  S        13.4663500000       23.6968300000       19.0991632446
  S        20.5621900000       18.1047500000       19.0991632446
  S        29.8945300000        3.8189900000       23.4579132446
  S        25.0632200000       12.2505900000       23.4579132446
  S        22.4470800000        7.0354900000       29.5794132447
  S        27.2783600000        2.6010900000       29.5794132447
  S        22.4470800000        2.6010900000       21.0808132446
  S        27.2783600000        7.0354900000       21.0808132446
  S        27.6793900000        0.6024900000       29.5794132447
  S        22.0460800000        9.0340900000       29.5794132447
  S        27.6793900000        9.0340900000       21.0808132446
  S        22.0460800000        0.6024900000       21.0808132446
  S        24.6622200000       10.2519900000       23.4579132446
  S        30.2955300000        5.8175900000       23.4579132446
  S        28.3404200000        3.4703200000       22.1692132446
  S        26.6173300000       12.5992600000       22.1692132446
  S        24.0011600000        6.6868200000       28.2907132446
  S        25.7242800000        2.9497600000       28.2907132446
  S        24.0011600000        2.9497600000       22.3695132446
  S        25.7242800000        6.6868200000       22.3695132446
  S        29.2334700000        0.2538200000       28.2907132446
  S        30.9565900000        9.3827600000       28.2907132446
  S        29.2334700000        9.3827600000       22.3695132446
  S        30.9565900000        0.2538200000       22.3695132446
  S        23.1081400000        9.9033200000       22.1692132446
  S        21.3850200000        6.1662600000       22.1692132446
  S        29.1443200000        2.8212300000       20.4027932446
  S        25.8134300000        0.3823500000       20.4027932446
  S        23.1972900000        6.0377300000       26.5242932446
  S        26.5281800000        3.5988500000       26.5242932446
  S        23.1972900000        3.5988500000       24.1359332446
  S        26.5281800000        6.0377300000       24.1359332446
  S        28.4295700000       12.4707300000       26.5242932446
  S        21.2958700000       10.0318500000       26.5242932446
  S        28.4295700000       10.0318500000       24.1359332446
  S        21.2958700000       12.4707300000       24.1359332446
  S        23.9120100000        9.2542300000       20.4027932446
  S        31.0457400000        6.8153500000       20.4027932446
  S        29.1632500000        4.3978300000       19.0991632446
  S        25.7945000000       11.6717500000       19.0991632446
  S        23.1783300000        7.6143300000       25.2206632446
  S        26.5471100000        2.0222500000       25.2206632446
  S        23.1783300000        2.0222500000       25.4395632446
  S        26.5471100000        7.6143300000       25.4395632446
  S        28.4106400000        1.1813300000       25.2206632446
  S        21.3148000000        8.4552500000       25.2206632446
  S        28.4106400000        8.4552500000       25.4395632446
  S        21.3148000000        1.1813300000       25.4395632446
  S        23.9309700000       10.8308300000       19.0991632446
  S        31.0267800000        5.2387500000       19.0991632446
  S        29.8945300000       16.6849900000       23.4579132446
  S        25.0632200000       25.1165900000       23.4579132446
  S        22.4470800000       19.9014900000       29.5794132447
  S        27.2783600000       15.4670900000       29.5794132447
  S        22.4470800000       15.4670900000       21.0808132446
  S        27.2783600000       19.9014900000       21.0808132446
  S        27.6793900000       13.4684900000       29.5794132447
  S        22.0460800000       21.9000900000       29.5794132447
  S        27.6793900000       21.9000900000       21.0808132446
  S        22.0460800000       13.4684900000       21.0808132446
  S        24.6622200000       23.1179900000       23.4579132446
  S        30.2955300000       18.6835900000       23.4579132446
  S        28.3404200000       16.3363200000       22.1692132446
  S        26.6173300000       25.4652600000       22.1692132446
  S        24.0011600000       19.5528200000       28.2907132446
  S        25.7242800000       15.8157600000       28.2907132446
  S        24.0011600000       15.8157600000       22.3695132446
  S        25.7242800000       19.5528200000       22.3695132446
  S        29.2334700000       13.1198200000       28.2907132446
  S        30.9565900000       22.2487600000       28.2907132446
  S        29.2334700000       22.2487600000       22.3695132446
  S        30.9565900000       13.1198200000       22.3695132446
  S        23.1081400000       22.7693200000       22.1692132446
  S        21.3850200000       19.0322600000       22.1692132446
  S        29.1443200000       15.6872300000       20.4027932446
  S        25.8134300000       13.2483500000       20.4027932446
  S        23.1972900000       18.9037300000       26.5242932446
  S        26.5281800000       16.4648500000       26.5242932446
  S        23.1972900000       16.4648500000       24.1359332446
  S        26.5281800000       18.9037300000       24.1359332446
  S        28.4295700000       25.3367300000       26.5242932446
  S        21.2958700000       22.8978500000       26.5242932446
  S        28.4295700000       22.8978500000       24.1359332446
  S        21.2958700000       25.3367300000       24.1359332446
  S        23.9120100000       22.1202300000       20.4027932446
  S        31.0457400000       19.6813500000       20.4027932446
  S        29.1632500000       17.2638300000       19.0991632446
  S        25.7945000000       24.5377500000       19.0991632446
  S        23.1783300000       20.4803300000       25.2206632446
  S        26.5471100000       14.8882500000       25.2206632446
  S        23.1783300000       14.8882500000       25.4395632446
  S        26.5471100000       20.4803300000       25.4395632446
  S        28.4106400000       14.0473300000       25.2206632446
  S        21.3148000000       21.3212500000       25.2206632446
  S        28.4106400000       21.3212500000       25.4395632446
  S        21.3148000000       14.0473300000       25.4395632446
  S        23.9309700000       23.6968300000       19.0991632446
  S        31.0267800000       18.1047500000       19.0991632446
  S         1.5175300416        9.0242345324       33.6471320420
  S         6.3583284404        0.6243185752       33.6670064428
  S         8.9717149533        5.8503127459       27.3021919639
  S         4.1228792626       10.2442668594       27.2717356056
  S         9.5900631649       11.8410648318       37.3031284132
  S         4.1367126111        5.8388605113       36.0458211166
  S         3.7315248552       12.2680856030       27.2849275221
  S         9.3551374347        3.8249340814       27.2863820869
  S         3.7155853869        3.8143787810       36.0542617772
  S        11.0190440247       13.1293010734       36.5483841288
  S         6.7635777849        2.6470281244       33.7291115192
  S         1.1007294001        7.0026030003       33.6677223845
  S         3.1038815384        9.4054785245       34.9238431912
  S         4.7495313177        0.2110349937       34.9053141323
  S         7.4190653832        6.2570753896       28.6116898632
  S         5.6888475778        9.8306654532       28.5626397632
  S         7.6723184741        9.6872515378       35.1611245887
  S         5.6990311437        6.2259549613       34.7479986598
  S         2.1846388381       12.6674091417       28.6029282420
  S         0.4596907503        3.4013519492       28.5742522876
  S         2.1608569157        3.4206219457       34.7473821350
  S         0.4783122088       12.6528266219       34.7165555370
  S         8.3145842370        2.9904706960       35.0597918825
  S         9.9816330779        6.6585705058       34.7927279857
  S         2.3664184469       10.0390988711       36.7523945144
  S         5.5358458556       12.3628981889       36.9087985614
  S         8.2089985047        6.8600429021       30.4260804928
  S         4.9139015846        9.2018138607       30.3723381763
  S         8.1724659813        9.1942066029       33.2080354813
  S         4.9323997659        6.8416776049       32.9295598603
  S         2.9739543638        0.4061353287       30.3963656460
  S        10.1298279091        2.7707002290       30.3853229171
  S         2.9386510624        2.7949790542       32.9336454409
  S        10.1531829589        0.4145251187       32.9594113518
  S         7.5387243956        3.5564285803       36.8963739813
  S         0.2502871091        6.0387584297       36.7989154819
  S         2.2712867907        8.4472042950       38.0715552531
  S         5.4973989740        1.1250771890       38.0838276423
  S         8.2288589458        5.2466180978       31.7187413457
  S         4.9014201252       10.7860270162       31.6986947852
  S         8.1714923459       10.8444538086       32.0130860593
  S         4.8749630857        5.2426855445       31.6163652922
  S         3.0377121086       11.6774669462       31.7233112901
  S        10.0888456262        4.3486148006       31.7227512622
  S         2.9959197729        4.3855515662       31.6112571266
  S        10.0578838815       11.7679186749       31.8534885079
  S         7.4118133856        1.9166274778       38.1508167542
  S         0.3546090770        7.6585549624       38.0834784245
  S         1.5650054915       21.9083063308       33.6985046680
  S         6.3937504938       13.3432835990       33.8397224292
  S         8.9786838509       18.6779625842       27.3085809024
  S         4.1363249552       23.0989865590       27.2819761014
  S         8.9294943152       23.1000278385       36.0640493250
  S         4.1855584671       18.6596228981       36.0897765587
  S         3.7477310064       25.1233823995       27.2821545567
  S         9.3767072425       16.6553074849       27.3155980329
  S         3.7677177725       16.6347417901       36.1044956138
  S         9.3410166240       25.1252301073       36.0709779199
  S         6.8638957820       15.3720737128       33.8152818783
  S         1.1571869048       19.8847865012       33.6715586407
  S         3.1291953904       22.2729162177       35.0069435335
  S         4.7695867667       12.9628629066       35.0851819269
  S         7.4233823018       19.0796454465       28.6155982866
  S         5.6944086296       22.6898923175       28.5841175627
  S         7.3844784475       22.7117733053       34.7435587371
  S         5.7395488951       19.0386374335       34.7776273194
  S         2.1885331779       25.5295671534       28.5828293308
  S         0.4689313100       16.2739005618       28.5683132501
  S         2.2098903557       16.2327194179       34.8036307297
  S         0.4741977894       25.5201647928       34.7394442310
  S         8.3683037758       15.7134681783       35.1784113096
  S         9.9975399293       19.4972194430       34.8967392601
  S         2.3723504362       22.8646668622       36.8417225984
  S         5.4405058830       25.2836406022       36.7419209238
  S         8.2121130640       19.6840699036       30.4287814681
  S         4.9073771482       22.0643714651       30.3912531948
  S         8.1775058420       22.0973885245       32.9332093209
  S         4.9600211043       19.6511282852       32.9603322636
  S         2.9876718027       13.2758548804       30.4085767474
  S        10.1842559494       15.6206210053       30.4271939445
  S         2.9840542806       15.6005743539       32.9915546268
  S        10.2781949428       13.2993643456       33.2051642093
  S         7.5527452363       16.4011208503       36.9598070787
  S         0.2688782942       18.8556860727       36.7690557201
  S         2.2589565173       21.2421360166       38.1200751499
  S         5.5687194461       13.9664303298       38.2382806344
  S         8.2605863568       18.0823916146       31.7395790709
  S         4.8668071672       23.6529810159       31.7152941184
  S         8.2340803034       23.6959570687       31.6205672161
  S         4.9058556657       18.0453830856       31.6563921514
  S         3.0010339041       24.5375564951       31.7058570667
  S        10.1333946947       17.2132132749       31.7446940449
  S         3.0292368294       17.1856215328       31.6610566589
  S        10.1114660008       24.5550086577       31.6368645590
  S         7.4525310672       14.8068439785       38.2644165164
  S         0.3441621052       20.4487799805       38.0870334527
  S        12.0297516912        9.1135411560       33.8849043834
  S        16.8357073438        0.6342713015       33.6503222395
  S        19.4324200298        5.8348353279       27.2961888117
  S        14.6137278733       10.2233655511       27.2922028614
  S        17.7813626414        9.4429858850       36.3376668583
  S        14.5932285072        5.7980245346       36.1109875353
  S        14.2019455976       12.2444526391       27.2522320215
  S        19.8308037307        3.8123506444       27.2970047610
  S        14.1459715334        3.7802855397       36.0758791414
  S        19.2489859984       10.7257405272       37.0105133539
  S        17.2376954549        2.6577348599       33.7114546644
  S        11.6632312846        7.0831332559       33.6739061886
  S        13.6096842475        9.3564811844       35.2177581622
  S        15.2320123097        0.2172740322       34.8937375241
  S        17.8666303671        6.2330389468       28.5921496528
  S        16.1924961996        9.8635515183       28.5829778397
  S        17.1877614574        9.9351863071       34.4739133106
  S        16.1644529822        6.1861572697       34.8222562547
  S        12.6121803795       12.6482325733       28.5172189420
  S        10.9160918413        3.4049571682       28.5817286473
  S        12.6017525237        3.4280627184       34.7441972472
  S        11.6662279173       12.5781500669       34.7127339079
  S        18.8007702193        3.0085844281       35.0267140024
  S        20.4461526883        6.7835374548       35.0015545211
  S        12.7992731253        9.9056204058       37.0419561515
  S        15.6589794679       12.4240067627       36.8091955683
  S        18.6312939858        6.8691586002       30.4068232796
  S        15.4484625813        9.2981447583       30.4273855830
  S        18.7388604532        9.2128187498       33.1001980698
  S        15.4162822358        6.8735780214       33.0175805219
  S        13.4390603083        0.4107544535       30.4040436172
  S        20.6059079868        2.8047586207       30.4143227975
  S        13.3937341549        2.8415200731       32.9237461445
  S        20.6311788672        0.4243127203       32.9352018550
  S        18.0403984187        3.5721542001       36.8691314524
  S        10.4899733566        5.9986804780       36.6803937318
  S        12.4707209794        8.2685533720       38.2599298004
  S        16.0028009292        1.1380539204       38.0667714888
  S        18.6804445132        5.2709397746       31.7203190809
  S        15.3504146170       10.9501188955       31.6725358709
  S        18.7871751260       10.6036139699       31.5907584264
  S        15.3394615229        5.3105187604       31.6621271882
  S        13.4323123395       11.7113003495       31.6495987238
  S        20.5524933934        4.4037802737       31.7287954844
  S        13.4554621562        4.4663508705       31.6436757493
  S        20.5322928799       11.7731491204       31.6713195350
  S        17.9181567896        1.9285215674       38.1217041051
  S        10.5112884309        7.6370321755       37.9630330697
  S        12.0041137638       21.9603402973       33.7620146231
  S        17.1421320022       13.5508844173       34.0227531868
  S        19.4214735920       18.7073374296       27.2959391969
  S        14.5970182434       23.1055782991       27.2863304046
  S        19.4200446897       23.1070211826       36.0383969281
  S        14.6228430927       18.7587283558       36.1151950224
  S        14.2082643088       25.1300240179       27.2875668009
  S        19.8351977384       16.6879882464       27.2674058069
  S        14.1995759461       16.7346592022       36.1246903560
  S        19.8419404896       25.1301028356       36.0480921922
  S        17.5409449785       15.5871234337       34.1788060724
  S        11.6183919573       19.9342984340       33.6811585719
  S        13.5385697120       22.3147875924       35.1087439459
  S        15.2911993626       13.1658309220       34.9235012423
  S        17.8662701710       19.0768941178       28.6124133503
  S        16.1560448133       22.6973234987       28.5873205560
  S        17.8694258395       22.7284451969       34.7223788215
  S        16.1885163873       19.1413399535       34.8181451030
  S        12.6511115632       25.5365143952       28.5905514716
  S        10.9443915643       16.2598660670       28.6115837643
  S        12.6700183648       16.3291722321       34.7945549317
  S        10.9106243674       25.5209663721       34.7815663105
  S        18.8340885718       15.8359254624       35.7726853600
  S        20.4249307215       19.4693726788       34.8673515856
  S        12.7393792524       22.8616838115       36.9400844403
  S        15.9315488863       25.2927090480       36.7282891431
  S        18.6490336334       19.6444050853       30.4396367303
  S        15.3697730210       22.0688630378       30.3933987655