     580
 i =      129, E =     -5912.8828284245
  S         8.9653200000        3.8189900000       24.7518500000
  S         4.1340400000       12.2505900000       24.7518500000
  S         1.5178700000        7.0354900000       30.8733500000
  S         6.3491800000        2.6010900000       30.8733500000
  S         1.5178700000        2.6010900000       22.3747500000
  S         6.3491800000        7.0354900000       22.3747500000
  S         6.7501800000        0.6024900000       30.8733500000
  S         1.1168700000        9.0340900000       30.8733500000
  S         6.7501800000        9.0340900000       22.3747500000
  S         1.1168700000        0.6024900000       22.3747500000
  S         3.7330100000       10.2519900000       24.7518500000
  S         9.3663200000        5.8175900000       24.7518500000
  S         7.4112400000        3.4703200000       23.4631500000
  S         5.6881200000       12.5992600000       23.4631500000
  S         3.0719800000        6.6868200000       29.5846500000
  S         4.7950700000        2.9497600000       29.5846500000
  S         3.0719800000        2.9497600000       23.6634500000
  S         4.7950700000        6.6868200000       23.6634500000
  S         8.3042600000        0.2538200000       29.5846500000
  S        10.0273800000        9.3827600000       29.5846500000
  S         8.3042600000        9.3827600000       23.6634500000
  S        10.0273800000        0.2538200000       23.6634500000
  S         2.1789300000        9.9033200000       23.4631500000
  S         0.4558100000        6.1662600000       23.4631500000
  S         8.2151100000        2.8212300000       21.6967300000
  S         4.8842200000        0.3823500000       21.6967300000
  S         2.2680800000        6.0377300000       27.8182300000
  S         5.5989700000        3.5988500000       27.8182300000
  S         2.2680800000        3.5988500000       25.4298700000
  S         5.5989700000        6.0377300000       25.4298700000
  S         7.5003900000       12.4707300000       27.8182300000
  S         0.3666600000       10.0318500000       27.8182300000
  S         7.5003900000       10.0318500000       25.4298700000
  S         0.3666600000       12.4707300000       25.4298700000
  S         2.9828300000        9.2542300000       21.6967300000
  S        10.1165300000        6.8153500000       21.6967300000
  S         8.2340700000        4.3978300000       20.3931000000
  S         4.8652900000       11.6717500000       20.3931000000
  S         2.2491500000        7.6143300000       26.5146000000
  S         5.6179000000        2.0222500000       26.5146000000
  S         2.2491500000        2.0222500000       26.7335000000
  S         5.6179000000        7.6143300000       26.7335000000
  S         7.4814300000        1.1813300000       26.5146000000
  S         0.3856200000        8.4552500000       26.5146000000
  S         7.4814300000        8.4552500000       26.7335000000
  S         0.3856200000        1.1813300000       26.7335000000
  S         3.0017600000       10.8308300000       20.3931000000
  S        10.0976000000        5.2387500000       20.3931000000
  S         8.9653200000       16.6849900000       24.7518500000
  S         4.1340400000       25.1165900000       24.7518500000
  S         1.5178700000       19.9014900000       30.8733500000
  S         6.3491800000       15.4670900000       30.8733500000
  S         1.5178700000       15.4670900000       22.3747500000
  S         6.3491800000       19.9014900000       22.3747500000
  S         6.7501800000       13.4684900000       30.8733500000
  S         1.1168700000       21.9000900000       30.8733500000
  S         6.7501800000       21.9000900000       22.3747500000
  S         1.1168700000       13.4684900000       22.3747500000
  S         3.7330100000       23.1179900000       24.7518500000
  S         9.3663200000       18.6835900000       24.7518500000
  S         7.4112400000       16.3363200000       23.4631500000
  S         5.6881200000       25.4652600000       23.4631500000
  S         3.0719800000       19.5528200000       29.5846500000
  S         4.7950700000       15.8157600000       29.5846500000
  S         3.0719800000       15.8157600000       23.6634500000
  S         4.7950700000       19.5528200000       23.6634500000
  S         8.3042600000       13.1198200000       29.5846500000
  S        10.0273800000       22.2487600000       29.5846500000
  S         8.3042600000       22.2487600000       23.6634500000
  S        10.0273800000       13.1198200000       23.6634500000
  S         2.1789300000       22.7693200000       23.4631500000
  S         0.4558100000       19.0322600000       23.4631500000
  S         8.2151100000       15.6872300000       21.6967300000
  S         4.8842200000       13.2483500000       21.6967300000
  S         2.2680800000       18.9037300000       27.8182300000
  S         5.5989700000       16.4648500000       27.8182300000
  S         2.2680800000       16.4648500000       25.4298700000
  S         5.5989700000       18.9037300000       25.4298700000
  S         7.5003900000       25.3367300000       27.8182300000
  S         0.3666600000       22.8978500000       27.8182300000
  S         7.5003900000       22.8978500000       25.4298700000
  S         0.3666600000       25.3367300000       25.4298700000
  S         2.9828300000       22.1202300000       21.6967300000
  S        10.1165300000       19.6813500000       21.6967300000
  S         8.2340700000       17.2638300000       20.3931000000
  S         4.8652900000       24.5377500000       20.3931000000
  S         2.2491500000       20.4803300000       26.5146000000
  S         5.6179000000       14.8882500000       26.5146000000
  S         2.2491500000       14.8882500000       26.7335000000
  S         5.6179000000       20.4803300000       26.7335000000
  S         7.4814300000       14.0473300000       26.5146000000
  S         0.3856200000       21.3212500000       26.5146000000
  S         7.4814300000       21.3212500000       26.7335000000
  S         0.3856200000       14.0473300000       26.7335000000
  S         3.0017600000       23.6968300000       20.3931000000
  S        10.0976000000       18.1047500000       20.3931000000
  S        19.4299100000        3.8189900000       24.7518500000
  S        14.5986300000       12.2505900000       24.7518500000
  S        11.9824900000        7.0354900000       30.8733500000
  S        16.8137700000        2.6010900000       30.8733500000
  S        11.9824900000        2.6010900000       22.3747500000
  S        16.8137700000        7.0354900000       22.3747500000
  S        17.2147700000        0.6024900000       30.8733500000
  S        11.5814600000        9.0340900000       30.8733500000
  S        17.2147700000        9.0340900000       22.3747500000
  S        11.5814600000        0.6024900000       22.3747500000
  S        14.1976300000       10.2519900000       24.7518500000
  S        19.8309400000        5.8175900000       24.7518500000
  S        17.8758300000        3.4703200000       23.4631500000
  S        16.1527100000       12.5992600000       23.4631500000
  S        13.5365700000        6.6868200000       29.5846500000
  S        15.2596900000        2.9497600000       29.5846500000
  S        13.5365700000        2.9497600000       23.6634500000
  S        15.2596900000        6.6868200000       23.6634500000
  S        18.7688800000        0.2538200000       29.5846500000
  S        20.4919700000        9.3827600000       29.5846500000
  S        18.7688800000        9.3827600000       23.6634500000
  S        20.4919700000        0.2538200000       23.6634500000
  S        12.6435200000        9.9033200000       23.4631500000
  S        10.9204300000        6.1662600000       23.4631500000
  S        18.6797300000        2.8212300000       21.6967300000
  S        15.3488400000        0.3823500000       21.6967300000
  S        12.7326700000        6.0377300000       27.8182300000
  S        16.0635600000        3.5988500000       27.8182300000
  S        12.7326700000        3.5988500000       25.4298700000
  S        16.0635600000        6.0377300000       25.4298700000
  S        17.9649800000       12.4707300000       27.8182300000
  S        10.8312800000       10.0318500000       27.8182300000
  S        17.9649800000       10.0318500000       25.4298700000
  S        10.8312800000       12.4707300000       25.4298700000
  S        13.4474200000        9.2542300000       21.6967300000
  S        20.5811200000        6.8153500000       21.6967300000
  S        18.6986600000        4.3978300000       20.3931000000
  S        15.3298800000       11.6717500000       20.3931000000
  S        12.7137400000        7.6143300000       26.5146000000
  S        16.0825200000        2.0222500000       26.5146000000
  S        12.7137400000        2.0222500000       26.7335000000
  S        16.0825200000        7.6143300000       26.7335000000
  S        17.9460500000        1.1813300000       26.5146000000
  S        10.8502100000        8.4552500000       26.5146000000
  S        17.9460500000        8.4552500000       26.7335000000
  S        10.8502100000        1.1813300000       26.7335000000
  S        13.4663500000       10.8308300000       20.3931000000
  S        20.5621900000        5.2387500000       20.3931000000
  S        19.4299100000       16.6849900000       24.7518500000
  S        14.5986300000       25.1165900000       24.7518500000
  S        11.9824900000       19.9014900000       30.8733500000
  S        16.8137700000       15.4670900000       30.8733500000
  S        11.9824900000       15.4670900000       22.3747500000
  S        16.8137700000       19.9014900000       22.3747500000
  S        17.2147700000       13.4684900000       30.8733500000
  S        11.5814600000       21.9000900000       30.8733500000
  S        17.2147700000       21.9000900000       22.3747500000
  S        11.5814600000       13.4684900000       22.3747500000
  S        14.1976300000       23.1179900000       24.7518500000
  S        19.8309400000       18.6835900000       24.7518500000
  S        17.8758300000       16.3363200000       23.4631500000
  S        16.1527100000       25.4652600000       23.4631500000
  S        13.5365700000       19.5528200000       29.5846500000
  S        15.2596900000       15.8157600000       29.5846500000
  S        13.5365700000       15.8157600000       23.6634500000
  S        15.2596900000       19.5528200000       23.6634500000
  S        18.7688800000       13.1198200000       29.5846500000
  S        20.4919700000       22.2487600000       29.5846500000
  S        18.7688800000       22.2487600000       23.6634500000
  S        20.4919700000       13.1198200000       23.6634500000
  S        12.6435200000       22.7693200000       23.4631500000
  S        10.9204300000       19.0322600000       23.4631500000
  S        18.6797300000       15.6872300000       21.6967300000
  S        15.3488400000       13.2483500000       21.6967300000
  S        12.7326700000       18.9037300000       27.8182300000
  S        16.0635600000       16.4648500000       27.8182300000
  S        12.7326700000       16.4648500000       25.4298700000
  S        16.0635600000       18.9037300000       25.4298700000
  S        17.9649800000       25.3367300000       27.8182300000
  S        10.8312800000       22.8978500000       27.8182300000
  S        17.9649800000       22.8978500000       25.4298700000
  S        10.8312800000       25.3367300000       25.4298700000
  S        13.4474200000       22.1202300000       21.6967300000
  S        20.5811200000       19.6813500000       21.6967300000
  S        18.6986600000       17.2638300000       20.3931000000
  S        15.3298800000       24.5377500000       20.3931000000
  S        12.7137400000       20.4803300000       26.5146000000
  S        16.0825200000       14.8882500000       26.5146000000
  S        12.7137400000       14.8882500000       26.7335000000
  S        16.0825200000       20.4803300000       26.7335000000
  S        17.9460500000       14.0473300000       26.5146000000
  S        10.8502100000       21.3212500000       26.5146000000
  S        17.9460500000       21.3212500000       26.7335000000
  S        10.8502100000       14.0473300000       26.7335000000
  S        13.4663500000       23.6968300000       20.3931000000
  S        20.5621900000       18.1047500000       20.3931000000
  S        29.8945300000        3.8189900000       24.7518500000
  S        25.0632200000       12.2505900000       24.7518500000
  S        22.4470800000        7.0354900000       30.8733500000
  S        27.2783600000        2.6010900000       30.8733500000
  S        22.4470800000        2.6010900000       22.3747500000
  S        27.2783600000        7.0354900000       22.3747500000
  S        27.6793900000        0.6024900000       30.8733500000
  S        22.0460800000        9.0340900000       30.8733500000
  S        27.6793900000        9.0340900000       22.3747500000
  S        22.0460800000        0.6024900000       22.3747500000
  S        24.6622200000       10.2519900000       24.7518500000
  S        30.2955300000        5.8175900000       24.7518500000
  S        28.3404200000        3.4703200000       23.4631500000
  S        26.6173300000       12.5992600000       23.4631500000
  S        24.0011600000        6.6868200000       29.5846500000
  S        25.7242800000        2.9497600000       29.5846500000
  S        24.0011600000        2.9497600000       23.6634500000
  S        25.7242800000        6.6868200000       23.6634500000
  S        29.2334700000        0.2538200000       29.5846500000
  S        30.9565900000        9.3827600000       29.5846500000
  S        29.2334700000        9.3827600000       23.6634500000
  S        30.9565900000        0.2538200000       23.6634500000
  S        23.1081400000        9.9033200000       23.4631500000
  S        21.3850200000        6.1662600000       23.4631500000
  S        29.1443200000        2.8212300000       21.6967300000
  S        25.8134300000        0.3823500000       21.6967300000
  S        23.1972900000        6.0377300000       27.8182300000
  S        26.5281800000        3.5988500000       27.8182300000
  S        23.1972900000        3.5988500000       25.4298700000
  S        26.5281800000        6.0377300000       25.4298700000
  S        28.4295700000       12.4707300000       27.8182300000
  S        21.2958700000       10.0318500000       27.8182300000
  S        28.4295700000       10.0318500000       25.4298700000
  S        21.2958700000       12.4707300000       25.4298700000
  S        23.9120100000        9.2542300000       21.6967300000
  S        31.0457400000        6.8153500000       21.6967300000
  S        29.1632500000        4.3978300000       20.3931000000
  S        25.7945000000       11.6717500000       20.3931000000
  S        23.1783300000        7.6143300000       26.5146000000
  S        26.5471100000        2.0222500000       26.5146000000
  S        23.1783300000        2.0222500000       26.7335000000
  S        26.5471100000        7.6143300000       26.7335000000
  S        28.4106400000        1.1813300000       26.5146000000
  S        21.3148000000        8.4552500000       26.5146000000
  S        28.4106400000        8.4552500000       26.7335000000
  S        21.3148000000        1.1813300000       26.7335000000
  S        23.9309700000       10.8308300000       20.3931000000
  S        31.0267800000        5.2387500000       20.3931000000
  S        29.8945300000       16.6849900000       24.7518500000
  S        25.0632200000       25.1165900000       24.7518500000
  S        22.4470800000       19.9014900000       30.8733500000
  S        27.2783600000       15.4670900000       30.8733500000
  S        22.4470800000       15.4670900000       22.3747500000
  S        27.2783600000       19.9014900000       22.3747500000
  S        27.6793900000       13.4684900000       30.8733500000
  S        22.0460800000       21.9000900000       30.8733500000
  S        27.6793900000       21.9000900000       22.3747500000
  S        22.0460800000       13.4684900000       22.3747500000
  S        24.6622200000       23.1179900000       24.7518500000
  S        30.2955300000       18.6835900000       24.7518500000
  S        28.3404200000       16.3363200000       23.4631500000
  S        26.6173300000       25.4652600000       23.4631500000
  S        24.0011600000       19.5528200000       29.5846500000
  S        25.7242800000       15.8157600000       29.5846500000
  S        24.0011600000       15.8157600000       23.6634500000
  S        25.7242800000       19.5528200000       23.6634500000
  S        29.2334700000       13.1198200000       29.5846500000
  S        30.9565900000       22.2487600000       29.5846500000
  S        29.2334700000       22.2487600000       23.6634500000
  S        30.9565900000       13.1198200000       23.6634500000
  S        23.1081400000       22.7693200000       23.4631500000
  S        21.3850200000       19.0322600000       23.4631500000
  S        29.1443200000       15.6872300000       21.6967300000
  S        25.8134300000       13.2483500000       21.6967300000
  S        23.1972900000       18.9037300000       27.8182300000
  S        26.5281800000       16.4648500000       27.8182300000
  S        23.1972900000       16.4648500000       25.4298700000
  S        26.5281800000       18.9037300000       25.4298700000
  S        28.4295700000       25.3367300000       27.8182300000
  S        21.2958700000       22.8978500000       27.8182300000
  S        28.4295700000       22.8978500000       25.4298700000
  S        21.2958700000       25.3367300000       25.4298700000
  S        23.9120100000       22.1202300000       21.6967300000
  S        31.0457400000       19.6813500000       21.6967300000
  S        29.1632500000       17.2638300000       20.3931000000
  S        25.7945000000       24.5377500000       20.3931000000
  S        23.1783300000       20.4803300000       26.5146000000
  S        26.5471100000       14.8882500000       26.5146000000
  S        23.1783300000       14.8882500000       26.7335000000
  S        26.5471100000       20.4803300000       26.7335000000
  S        28.4106400000       14.0473300000       26.5146000000
  S        21.3148000000       21.3212500000       26.5146000000
  S        28.4106400000       21.3212500000       26.7335000000
  S        21.3148000000       14.0473300000       26.7335000000
  S        23.9309700000       23.6968300000       20.3931000000
  S        31.0267800000       18.1047500000       20.3931000000
  S         1.5088792439        9.0263986680       34.9780972712
  S         6.3333600508        0.5765020124       34.9940160412
  S         8.9669851659        5.8518053963       28.6063343984
  S         4.1267247484       10.2437581938       28.5697631331
  S         9.5993615840       11.9099483088       38.6565095859
  S         4.1528232932        5.8379769446       37.3369276283
  S         3.7312502430       12.2667686181       28.5815823675
  S         9.3495807494        3.8262130166       28.5849764032
  S         3.7415384684        3.8116373440       37.3451495774
  S        11.0131424702       13.1793091671       37.8392106183
  S         6.7404480063        2.5997416118       34.9924596942
  S         1.1050159714        7.0020139579       34.9515926471
  S         3.0759693731        9.3945041615       36.2818592389
  S         4.7527505158        0.1961991236       36.2789869604
  S         7.4178611774        6.2557817724       29.9213538518
  S         5.6927121828        9.8354177636       29.8622186159
  S         7.7642587615        9.6791793298       36.5058367141
  S         5.7068947613        6.2350795754       36.0313442869
  S         2.1802046672       12.6624247496       29.8958775268
  S         0.4598001114        3.3973850955       29.8709806620
  S         2.1816248064        3.4121628029       36.0460613845
  S         0.4390757069       12.6354411110       36.0409487803
  S         8.3181137416        2.9771384052       36.2816689569
  S         9.9969533906        6.6025295768       36.1685527251
  S         2.3109178423        9.9842473352       38.1143008825
  S         5.5138583095       12.3310310093       38.1916891854
  S         8.2119037046        6.8621023382       31.7329703759
  S         4.9192606528        9.2051640912       31.6721796506
  S         8.2393172602        9.1662390091       34.5517263369
  S         4.9272322674        6.8449508928       34.2169885479
  S         2.9757952276        0.4012930857       31.7008330025
  S        10.1343637141        2.7724841566       31.6823033439
  S         2.9513459162        2.7877683941       34.2288810965
  S        10.1535704443        0.4028780469       34.2551576417
  S         7.5816168356        3.5892190205       38.1188849290
  S         0.2201753177        5.9684074364       38.0500771014
  S         2.2057276420        8.3639997124       39.3981417949
  S         5.5759489271        1.1879150465       39.4166819446
  S         8.2440145105        5.2512554093       33.0291056623
  S         4.8957752310       10.7908748307       32.9970018314
  S         8.1633595125       10.7956601325       33.3337869549
  S         4.8742896805        5.2446496601       32.9048518109
  S         3.0269133838       11.6719539811       33.0175026231
  S        10.1045810839        4.3545803490       33.0149513964
  S         2.9992525662        4.3787170808       32.9059993551
  S        10.0152947998       11.7875686483       33.1445759324
  S         7.4903195526        1.9825183206       39.4185455524
  S         0.2940967190        7.5638223558       39.3669185695
  S         1.5024172216       21.8262915468       34.9664960185
  S         6.4079351518       13.3385057304       35.1413753632
  S         8.9797252434       18.6833878243       28.6020222183
  S         4.1308581466       23.0998332689       28.5748670969
  S         8.9261739582       23.0840891376       37.3531435719
  S         4.1494301486       18.6391340356       37.3965426440
  S         3.7421501421       25.1242320025       28.5831866065
  S         9.3756963118       16.6602806767       28.5969310432
  S         3.7371048404       16.6127909416       37.3979606847
  S         9.3424826164       25.1083447664       37.3650962198
  S         6.8500052467       15.3736231589       35.1384605923
  S         1.0905705417       19.8047320658       35.0504589659
  S         3.1117456127       22.2496412566       36.2001919783
  S         4.7695135146       12.9281797849       36.3574603948
  S         7.4197553672       19.0792146095       29.9049668929
  S         5.6909348818       22.6853758806       29.8725888441
  S         7.3794314244       22.7024640831       36.0326515706
  S         5.7101997725       19.0292615645       36.0955980979
  S         2.1857903783       25.5251946797       29.8892352633
  S         0.4811944620       16.2724160293       29.8300292787
  S         2.1866910467       16.2123079399       36.0880602450
  S         0.4845051307       25.5245982123       36.0442001255
  S         8.3325724074       15.7217797267       36.5236174968
  S         9.9674240150       19.4842513753       36.1610074078
  S         2.4210542855       22.9251345021       38.0312494719
  S         5.4864804782       25.3147932032       38.1158683409
  S         8.2021606860       19.6620120756       31.7280147108
  S         4.9070958761       22.0598047745       31.6813141560
  S         8.1711288406       22.0903944351       34.2205851404
  S         4.9390028657       19.6522901011       34.2780765710
  S         2.9756911746       13.2715836033       31.7044383205
  S        10.1702208769       15.5943210089       31.6995261161
  S         2.9698670860       15.5995014586       34.2724727748
  S        10.2143447647       13.3045548549       34.5101460627
  S         7.4834309388       16.3942885793       38.2955506942
  S         0.3310164922       18.9204605930       38.2290248696
  S         2.3701447669       21.3647240881       39.3887569161
  S         5.5013488340       13.9312852395       39.5278925887
  S         8.2366637544       18.0447410585       33.0205319363
  S         4.8778178806       23.6491427754       33.0044510616
  S         8.2334942850       23.6908592548       32.9107618961
  S         4.8932766404       18.0555911293       32.9634709839
  S         3.0128628585       24.5348909303       33.0131032007
  S        10.1072242306       17.1731900956       33.0348429347
  S         3.0165051768       17.1964177890       32.9562858590
  S        10.1124467961       24.5468479976       32.9292835723
  S         7.3734673816       14.7946301055       39.5925992188
  S         0.4579703086       20.5696677770       39.4713525777
  S        12.0076764298        9.0505703994       35.1536745936
  S        16.8391848464        0.5845773988       34.9586330479
  S        19.4433290337        5.8275638180       28.5850145713
  S        14.6255625125       10.2421452711       28.5699577279
  S        19.4030221445       10.2392117894       37.3227216206
  S        14.5921234480        5.7849309479       37.4122117293
  S        14.2227183135       12.2642659647       28.5825123667
  S        19.8310064721        3.8030608640       28.5738911031
  S        14.1701658380        3.7617174575       37.3831421878
  S        19.8114115205       12.2654730734       37.3388042981
  S        17.2501094333        2.6068318324       35.0253559114
  S        11.6583492875        7.0108195711       35.0149511853
  S        13.6028870747        9.3566009694       36.4468581077
  S        15.2336750596        0.1682567627       36.1994864946
  S        17.8854290280        6.2273744537       29.8889934573
  S        16.1830592814        9.8395561290       29.8767128243
  S        17.8572235842        9.8517770817       36.0015138261
  S        16.1593187211        6.1925829637       36.1223821882
  S        12.6370198612       12.6458632533       29.8576140407
  S        10.9143709105        3.4025020292       29.8740477413
  S        12.6215793155        3.3931582090       36.0610750189
  S        11.6202364119       12.5784992801       36.0073364134
  S        18.8105182641        2.9476769153       36.3444408964
  S        20.4308176111        6.6426523070       36.2616418589
  S        12.8110589119        9.9486623994       38.2681962660
  S        15.8056601840       12.2989294705       37.7942667187
  S        18.6733347948        6.8268974994       31.7044880380
  S        15.4011035283        9.1663442246       31.6671619747
  S        18.6439366924        9.2543492376       34.1839627309
  S        15.4064107072        6.8341647856       34.3032487475
  S        13.4389193675        0.3963266271       31.7042762710
  S        20.5947547746        2.7488569828       31.6774098580
  S        13.4075929161        2.7940045543       34.2419697465
  S        20.6512124805        0.3647065285       34.2705043039
  S        18.0470561400        3.5113346379       38.1851975715
  S        10.5394953738        6.0118165737       38.0682225641
  S        12.5273579962        8.3442616942       39.5420376352
  S        16.0007338916        1.0793202640       39.3748028771
  S        18.6982500481        5.2211233534       33.0082105513
  S        15.2809303853       10.7285776937       33.0206416231
  S        18.6943090721       10.8682417565       32.8896627325
  S        15.3529852128        5.2523858354       32.9680258164
  S        13.3863293419       11.5506211309       32.9516228336
  S        20.5600359128        4.3288337818       33.0118029053
  S        13.4702751083        4.4067268931       32.9470683504
  S        20.5724110290       11.7270887371       32.9071979474
  S        17.9173225128        1.8665034639       39.4352935695
  S        10.5706651675        7.6869036711       39.3027745035
  S        11.9916719979       21.9434056154       35.0507547000
  S        16.9452747411       13.6040826803       34.8881930521
  S        19.4401016197       18.7057960952       28.5684077039
  S        14.5978412847       23.1061472099       28.5748145827
  S        19.4305316327       23.0270623559       37.3570516271
  S        14.5868625846       18.7065880789       37.3777200654
  S        14.2067200096       25.1300820639       28.5824514975
  S        19.8314638106       16.6821465352       28.5462118618
  S        14.1553389820       16.6849667297       37.3655375232
  S        19.8569032895       25.0505542751       37.3768247748
  S        17.3320642427       15.6148662933       35.1537495712
  S        11.5943985809       19.9202970664       34.9532609697
  S        13.5242073898       22.2780292678       36.4045074298
  S        15.2513790143       13.1017587080       35.9679932444
  S        17.8871553734       19.0984401071       29.8801748516
  S        16.1616488270       22.6971063862       29.8699783825
  S        17.8828595350       22.6514864684       36.0375037301
  S        16.1523003665       19.1001710790       36.0830933259
  S        12.6504349747       25.5307378059       29.8882412708
  S        10.9386692341       16.2542930198       29.8957240377
  S        12.6126177459       16.3219612103       36.0389965900
  S        10.9118151683       25.5042282232       36.0755579888
  S        18.7777505507       15.8502380942       36.6194132685
  S        20.4329693839       19.3380791973       36.1475220527
  S        12.7231007571       22.8147865233       38.2381917124
  S        15.9294563552       25.2369178044       38.0328887983
  S        18.6802135769       19.6754698052       31.7001393660
  S        15.3836171636       22.0595949131       31.6764359316