     580
 i =      191, E =     -5912.8268039022
  S         8.9653200000        3.8189900000       23.1553330106
  S         4.1340400000       12.2505900000       23.1553330106
  S         1.5178700000        7.0354900000       29.2768330106
  S         6.3491800000        2.6010900000       29.2768330106
  S         1.5178700000        2.6010900000       20.7782330106
  S         6.3491800000        7.0354900000       20.7782330106
  S         6.7501800000        0.6024900000       29.2768330106
  S         1.1168700000        9.0340900000       29.2768330106
  S         6.7501800000        9.0340900000       20.7782330106
  S         1.1168700000        0.6024900000       20.7782330106
  S         3.7330100000       10.2519900000       23.1553330106
  S         9.3663200000        5.8175900000       23.1553330106
  S         7.4112400000        3.4703200000       21.8666330106
  S         5.6881200000       12.5992600000       21.8666330106
  S         3.0719800000        6.6868200000       27.9881330106
  S         4.7950700000        2.9497600000       27.9881330106
  S         3.0719800000        2.9497600000       22.0669330106
  S         4.7950700000        6.6868200000       22.0669330106
  S         8.3042600000        0.2538200000       27.9881330106
  S        10.0273800000        9.3827600000       27.9881330106
  S         8.3042600000        9.3827600000       22.0669330106
  S        10.0273800000        0.2538200000       22.0669330106
  S         2.1789300000        9.9033200000       21.8666330106
  S         0.4558100000        6.1662600000       21.8666330106
  S         8.2151100000        2.8212300000       20.1002130106
  S         4.8842200000        0.3823500000       20.1002130106
  S         2.2680800000        6.0377300000       26.2217130106
  S         5.5989700000        3.5988500000       26.2217130106
  S         2.2680800000        3.5988500000       23.8333530106
  S         5.5989700000        6.0377300000       23.8333530106
  S         7.5003900000       12.4707300000       26.2217130106
  S         0.3666600000       10.0318500000       26.2217130106
  S         7.5003900000       10.0318500000       23.8333530106
  S         0.3666600000       12.4707300000       23.8333530106
  S         2.9828300000        9.2542300000       20.1002130106
  S        10.1165300000        6.8153500000       20.1002130106
  S         8.2340700000        4.3978300000       18.7965830106
  S         4.8652900000       11.6717500000       18.7965830106
  S         2.2491500000        7.6143300000       24.9180830106
  S         5.6179000000        2.0222500000       24.9180830106
  S         2.2491500000        2.0222500000       25.1369830106
  S         5.6179000000        7.6143300000       25.1369830106
  S         7.4814300000        1.1813300000       24.9180830106
  S         0.3856200000        8.4552500000       24.9180830106
  S         7.4814300000        8.4552500000       25.1369830106
  S         0.3856200000        1.1813300000       25.1369830106
  S         3.0017600000       10.8308300000       18.7965830106
  S        10.0976000000        5.2387500000       18.7965830106
  S         8.9653200000       16.6849900000       23.1553330106
  S         4.1340400000       25.1165900000       23.1553330106
  S         1.5178700000       19.9014900000       29.2768330106
  S         6.3491800000       15.4670900000       29.2768330106
  S         1.5178700000       15.4670900000       20.7782330106
  S         6.3491800000       19.9014900000       20.7782330106
  S         6.7501800000       13.4684900000       29.2768330106
  S         1.1168700000       21.9000900000       29.2768330106
  S         6.7501800000       21.9000900000       20.7782330106
  S         1.1168700000       13.4684900000       20.7782330106
  S         3.7330100000       23.1179900000       23.1553330106
  S         9.3663200000       18.6835900000       23.1553330106
  S         7.4112400000       16.3363200000       21.8666330106
  S         5.6881200000       25.4652600000       21.8666330106
  S         3.0719800000       19.5528200000       27.9881330106
  S         4.7950700000       15.8157600000       27.9881330106
  S         3.0719800000       15.8157600000       22.0669330106
  S         4.7950700000       19.5528200000       22.0669330106
  S         8.3042600000       13.1198200000       27.9881330106
  S        10.0273800000       22.2487600000       27.9881330106
  S         8.3042600000       22.2487600000       22.0669330106
  S        10.0273800000       13.1198200000       22.0669330106
  S         2.1789300000       22.7693200000       21.8666330106
  S         0.4558100000       19.0322600000       21.8666330106
  S         8.2151100000       15.6872300000       20.1002130106
  S         4.8842200000       13.2483500000       20.1002130106
  S         2.2680800000       18.9037300000       26.2217130106
  S         5.5989700000       16.4648500000       26.2217130106
  S         2.2680800000       16.4648500000       23.8333530106
  S         5.5989700000       18.9037300000       23.8333530106
  S         7.5003900000       25.3367300000       26.2217130106
  S         0.3666600000       22.8978500000       26.2217130106
  S         7.5003900000       22.8978500000       23.8333530106
  S         0.3666600000       25.3367300000       23.8333530106
  S         2.9828300000       22.1202300000       20.1002130106
  S        10.1165300000       19.6813500000       20.1002130106
  S         8.2340700000       17.2638300000       18.7965830106
  S         4.8652900000       24.5377500000       18.7965830106
  S         2.2491500000       20.4803300000       24.9180830106
  S         5.6179000000       14.8882500000       24.9180830106
  S         2.2491500000       14.8882500000       25.1369830106
  S         5.6179000000       20.4803300000       25.1369830106
  S         7.4814300000       14.0473300000       24.9180830106
  S         0.3856200000       21.3212500000       24.9180830106
  S         7.4814300000       21.3212500000       25.1369830106
  S         0.3856200000       14.0473300000       25.1369830106
  S         3.0017600000       23.6968300000       18.7965830106
  S        10.0976000000       18.1047500000       18.7965830106
  S        19.4299100000        3.8189900000       23.1553330106
  S        14.5986300000       12.2505900000       23.1553330106
  S        11.9824900000        7.0354900000       29.2768330106
  S        16.8137700000        2.6010900000       29.2768330106
  S        11.9824900000        2.6010900000       20.7782330106
  S        16.8137700000        7.0354900000       20.7782330106
  S        17.2147700000        0.6024900000       29.2768330106
  S        11.5814600000        9.0340900000       29.2768330106
  S        17.2147700000        9.0340900000       20.7782330106
  S        11.5814600000        0.6024900000       20.7782330106
  S        14.1976300000       10.2519900000       23.1553330106
  S        19.8309400000        5.8175900000       23.1553330106
  S        17.8758300000        3.4703200000       21.8666330106
  S        16.1527100000       12.5992600000       21.8666330106
  S        13.5365700000        6.6868200000       27.9881330106
  S        15.2596900000        2.9497600000       27.9881330106
  S        13.5365700000        2.9497600000       22.0669330106
  S        15.2596900000        6.6868200000       22.0669330106
  S        18.7688800000        0.2538200000       27.9881330106
  S        20.4919700000        9.3827600000       27.9881330106
  S        18.7688800000        9.3827600000       22.0669330106
  S        20.4919700000        0.2538200000       22.0669330106
  S        12.6435200000        9.9033200000       21.8666330106
  S        10.9204300000        6.1662600000       21.8666330106
  S        18.6797300000        2.8212300000       20.1002130106
  S        15.3488400000        0.3823500000       20.1002130106
  S        12.7326700000        6.0377300000       26.2217130106
  S        16.0635600000        3.5988500000       26.2217130106
  S        12.7326700000        3.5988500000       23.8333530106
  S        16.0635600000        6.0377300000       23.8333530106
  S        17.9649800000       12.4707300000       26.2217130106
  S        10.8312800000       10.0318500000       26.2217130106
  S        17.9649800000       10.0318500000       23.8333530106
  S        10.8312800000       12.4707300000       23.8333530106
  S        13.4474200000        9.2542300000       20.1002130106
  S        20.5811200000        6.8153500000       20.1002130106
  S        18.6986600000        4.3978300000       18.7965830106
  S        15.3298800000       11.6717500000       18.7965830106
  S        12.7137400000        7.6143300000       24.9180830106
  S        16.0825200000        2.0222500000       24.9180830106
  S        12.7137400000        2.0222500000       25.1369830106
  S        16.0825200000        7.6143300000       25.1369830106
  S        17.9460500000        1.1813300000       24.9180830106
  S        10.8502100000        8.4552500000       24.9180830106
  S        17.9460500000        8.4552500000       25.1369830106
  S        10.8502100000        1.1813300000       25.1369830106
  S        13.4663500000       10.8308300000       18.7965830106
  S        20.5621900000        5.2387500000       18.7965830106
  S        19.4299100000       16.6849900000       23.1553330106
  S        14.5986300000       25.1165900000       23.1553330106
  S        11.9824900000       19.9014900000       29.2768330106
  S        16.8137700000       15.4670900000       29.2768330106
  S        11.9824900000       15.4670900000       20.7782330106
  S        16.8137700000       19.9014900000       20.7782330106
  S        17.2147700000       13.4684900000       29.2768330106
  S        11.5814600000       21.9000900000       29.2768330106
  S        17.2147700000       21.9000900000       20.7782330106
  S        11.5814600000       13.4684900000       20.7782330106
  S        14.1976300000       23.1179900000       23.1553330106
  S        19.8309400000       18.6835900000       23.1553330106
  S        17.8758300000       16.3363200000       21.8666330106
  S        16.1527100000       25.4652600000       21.8666330106
  S        13.5365700000       19.5528200000       27.9881330106
  S        15.2596900000       15.8157600000       27.9881330106
  S        13.5365700000       15.8157600000       22.0669330106
  S        15.2596900000       19.5528200000       22.0669330106
  S        18.7688800000       13.1198200000       27.9881330106
  S        20.4919700000       22.2487600000       27.9881330106
  S        18.7688800000       22.2487600000       22.0669330106
  S        20.4919700000       13.1198200000       22.0669330106
  S        12.6435200000       22.7693200000       21.8666330106
  S        10.9204300000       19.0322600000       21.8666330106
  S        18.6797300000       15.6872300000       20.1002130106
  S        15.3488400000       13.2483500000       20.1002130106
  S        12.7326700000       18.9037300000       26.2217130106
  S        16.0635600000       16.4648500000       26.2217130106
  S        12.7326700000       16.4648500000       23.8333530106
  S        16.0635600000       18.9037300000       23.8333530106
  S        17.9649800000       25.3367300000       26.2217130106
  S        10.8312800000       22.8978500000       26.2217130106
  S        17.9649800000       22.8978500000       23.8333530106
  S        10.8312800000       25.3367300000       23.8333530106
  S        13.4474200000       22.1202300000       20.1002130106
  S        20.5811200000       19.6813500000       20.1002130106
  S        18.6986600000       17.2638300000       18.7965830106
  S        15.3298800000       24.5377500000       18.7965830106
  S        12.7137400000       20.4803300000       24.9180830106
  S        16.0825200000       14.8882500000       24.9180830106
  S        12.7137400000       14.8882500000       25.1369830106
  S        16.0825200000       20.4803300000       25.1369830106
  S        17.9460500000       14.0473300000       24.9180830106
  S        10.8502100000       21.3212500000       24.9180830106
  S        17.9460500000       21.3212500000       25.1369830106
  S        10.8502100000       14.0473300000       25.1369830106
  S        13.4663500000       23.6968300000       18.7965830106
  S        20.5621900000       18.1047500000       18.7965830106
  S        29.8945300000        3.8189900000       23.1553330106
  S        25.0632200000       12.2505900000       23.1553330106
  S        22.4470800000        7.0354900000       29.2768330106
  S        27.2783600000        2.6010900000       29.2768330106
  S        22.4470800000        2.6010900000       20.7782330106
  S        27.2783600000        7.0354900000       20.7782330106
  S        27.6793900000        0.6024900000       29.2768330106
  S        22.0460800000        9.0340900000       29.2768330106
  S        27.6793900000        9.0340900000       20.7782330106
  S        22.0460800000        0.6024900000       20.7782330106
  S        24.6622200000       10.2519900000       23.1553330106
  S        30.2955300000        5.8175900000       23.1553330106
  S        28.3404200000        3.4703200000       21.8666330106
  S        26.6173300000       12.5992600000       21.8666330106
  S        24.0011600000        6.6868200000       27.9881330106
  S        25.7242800000        2.9497600000       27.9881330106
  S        24.0011600000        2.9497600000       22.0669330106
  S        25.7242800000        6.6868200000       22.0669330106
  S        29.2334700000        0.2538200000       27.9881330106
  S        30.9565900000        9.3827600000       27.9881330106
  S        29.2334700000        9.3827600000       22.0669330106
  S        30.9565900000        0.2538200000       22.0669330106
  S        23.1081400000        9.9033200000       21.8666330106
  S        21.3850200000        6.1662600000       21.8666330106
  S        29.1443200000        2.8212300000       20.1002130106
  S        25.8134300000        0.3823500000       20.1002130106
  S        23.1972900000        6.0377300000       26.2217130106
  S        26.5281800000        3.5988500000       26.2217130106
  S        23.1972900000        3.5988500000       23.8333530106
  S        26.5281800000        6.0377300000       23.8333530106
  S        28.4295700000       12.4707300000       26.2217130106
  S        21.2958700000       10.0318500000       26.2217130106
  S        28.4295700000       10.0318500000       23.8333530106
  S        21.2958700000       12.4707300000       23.8333530106
  S        23.9120100000        9.2542300000       20.1002130106
  S        31.0457400000        6.8153500000       20.1002130106
  S        29.1632500000        4.3978300000       18.7965830106
  S        25.7945000000       11.6717500000       18.7965830106
  S        23.1783300000        7.6143300000       24.9180830106
  S        26.5471100000        2.0222500000       24.9180830106
  S        23.1783300000        2.0222500000       25.1369830106
  S        26.5471100000        7.6143300000       25.1369830106
  S        28.4106400000        1.1813300000       24.9180830106
  S        21.3148000000        8.4552500000       24.9180830106
  S        28.4106400000        8.4552500000       25.1369830106
  S        21.3148000000        1.1813300000       25.1369830106
  S        23.9309700000       10.8308300000       18.7965830106
  S        31.0267800000        5.2387500000       18.7965830106
  S        29.8945300000       16.6849900000       23.1553330106
  S        25.0632200000       25.1165900000       23.1553330106
  S        22.4470800000       19.9014900000       29.2768330106
  S        27.2783600000       15.4670900000       29.2768330106
  S        22.4470800000       15.4670900000       20.7782330106
  S        27.2783600000       19.9014900000       20.7782330106
  S        27.6793900000       13.4684900000       29.2768330106
  S        22.0460800000       21.9000900000       29.2768330106
  S        27.6793900000       21.9000900000       20.7782330106
  S        22.0460800000       13.4684900000       20.7782330106
  S        24.6622200000       23.1179900000       23.1553330106
  S        30.2955300000       18.6835900000       23.1553330106
  S        28.3404200000       16.3363200000       21.8666330106
  S        26.6173300000       25.4652600000       21.8666330106
  S        24.0011600000       19.5528200000       27.9881330106
  S        25.7242800000       15.8157600000       27.9881330106
  S        24.0011600000       15.8157600000       22.0669330106
  S        25.7242800000       19.5528200000       22.0669330106
  S        29.2334700000       13.1198200000       27.9881330106
  S        30.9565900000       22.2487600000       27.9881330106
  S        29.2334700000       22.2487600000       22.0669330106
  S        30.9565900000       13.1198200000       22.0669330106
  S        23.1081400000       22.7693200000       21.8666330106
  S        21.3850200000       19.0322600000       21.8666330106
  S        29.1443200000       15.6872300000       20.1002130106
  S        25.8134300000       13.2483500000       20.1002130106
  S        23.1972900000       18.9037300000       26.2217130106
  S        26.5281800000       16.4648500000       26.2217130106
  S        23.1972900000       16.4648500000       23.8333530106
  S        26.5281800000       18.9037300000       23.8333530106
  S        28.4295700000       25.3367300000       26.2217130106
  S        21.2958700000       22.8978500000       26.2217130106
  S        28.4295700000       22.8978500000       23.8333530106
  S        21.2958700000       25.3367300000       23.8333530106
  S        23.9120100000       22.1202300000       20.1002130106
  S        31.0457400000       19.6813500000       20.1002130106
  S        29.1632500000       17.2638300000       18.7965830106
  S        25.7945000000       24.5377500000       18.7965830106
  S        23.1783300000       20.4803300000       24.9180830106
  S        26.5471100000       14.8882500000       24.9180830106
  S        23.1783300000       14.8882500000       25.1369830106
  S        26.5471100000       20.4803300000       25.1369830106
  S        28.4106400000       14.0473300000       24.9180830106
  S        21.3148000000       21.3212500000       24.9180830106
  S        28.4106400000       21.3212500000       25.1369830106
  S        21.3148000000       14.0473300000       25.1369830106
  S        23.9309700000       23.6968300000       18.7965830106
  S        31.0267800000       18.1047500000       18.7965830106
  S         1.5040004188        9.0409388944       33.3993279114
  S         6.3888217461        0.6655087847       33.3282661787
  S         8.9748248920        5.8462945883       26.9971700305
  S         4.1318189419       10.2411004141       26.9799158262
  S         9.5447904904       11.7553166984       37.0320879277
  S         4.1242557089        5.8230208192       35.7833607350
  S         3.7359668868       12.2641977731       26.9889996110
  S         9.3609023477        3.8213643057       26.9857625590
  S         3.7034598991        3.7976290330       35.7714102917
  S        10.9830790001       13.0523848669       36.3051137236
  S         6.7907135903        2.6835245032       33.4936355388
  S         1.1034946413        7.0161358902       33.4171331475
  S         3.0837737823        9.4336465947       34.6813932607
  S         4.7412145899        0.1989580306       34.4946837630
  S         7.4159588744        6.2508363941       28.2998461533
  S         5.6935273707        9.8326671107       28.2780051695
  S         7.6178021302        9.6894780755       34.8028082522
  S         5.6915384274        6.2245107239       34.4965981928
  S         2.1804733600       12.6599786512       28.2977057273
  S         0.4568564575        3.4002463734       28.2759135342
  S         2.1548973275        3.4141170682       34.4542445208
  S         0.4044637611       12.6715516406       34.4778833114
  S         8.3021610596        2.9659111587       34.8825875121
  S         9.9354633875        6.6367545626       34.4911554762
  S         2.3335316514       10.0607570612       36.5072715240
  S         5.5076873219       12.3075878308       36.5114161437
  S         8.1943540256        6.8562990155       30.1181589633
  S         4.9135070294        9.2004641599       30.0847367728
  S         8.1972371492        9.2156904495       32.8660188690
  S         4.9335216673        6.8580136411       32.6802568352
  S         2.9719458075        0.3950885747       30.0949164902
  S        10.1355652055        2.7735856366       30.0874638616
  S         2.9415375215        2.8087373541       32.6369599292
  S        10.1621422278        0.4173711085       32.6575230122
  S         7.4733966974        3.4521107782       36.7195701049
  S         0.2665679629        6.0425742744       36.5485936669
  S         2.2593084836        8.4693963365       37.8263145070
  S         5.3839895340        0.9759599139       37.7287359789
  S         8.2167375604        5.2398578110       31.4079717682
  S         4.8830174136       10.7822409785       31.4138093196
  S         8.1752288644       10.8715530638       31.6788749698
  S         4.8796318946        5.2707496229       31.3521044203
  S         3.0140769823       11.6634144042       31.4204001616
  S        10.0826576100        4.3547634293       31.4211275737
  S         3.0008649683        4.4133387860       31.3326070502
  S        10.0410163460       11.8410578885       31.5621903473
  S         7.2970335580        1.7568129092       37.8937201026
  S         0.3513281125        7.6586957960       37.8367403879
  S         1.5635755163       21.9502604296       33.4826180536
  S         6.4413964745       13.4048048955       33.5080176790
  S         8.9885537672       18.6775084518       26.9938095580
  S         4.1427837124       23.0990155139       26.9793820362
  S         8.9238733184       23.0813982342       35.7382525180
  S         4.1483255798       18.6475773700       35.7987871306
  S         3.7536056315       25.1233475955       26.9779482929
  S         9.3842225950       16.6543478906       26.9970759465
  S         3.7497463553       16.6186943346       35.7950971342
  S         9.3391417483       25.1056707869       35.7593513558
  S         6.8910691033       15.4366171722       33.5749987085
  S         1.1630043701       19.9298060592       33.3382572329
  S         3.0749313396       22.2529475424       34.8670707421
  S         4.7858550181       12.9676680983       34.6903222415
  S         7.4213810408       19.0768055728       28.2867308165
  S         5.7006837705       22.6917022486       28.2826775513
  S         7.3850276746       22.7051225202       34.4069144278
  S         5.7067259060       19.0541141500       34.4991935119
  S         2.1920089665       25.5292980475       28.2754056641
  S         0.4751055195       16.2693743917       28.2706278958
  S         2.2048847539       16.2116168144       34.4798991213
  S         0.4665193490       25.5077753810       34.4588261590
  S         8.3587566580       15.7385786655       34.9868592375
  S         9.9668131605       19.4919961911       34.4808862586
  S         2.2452313742       22.7553847338       36.6982112055
  S         5.3715093059       25.1910230616       36.3214069392
  S         8.1921617986       19.6590658566       30.1147424894
  S         4.9126250920       22.0555394912       30.0852870057
  S         8.1860157988       22.1025880939       32.5963065352
  S         4.9315459152       19.6828545298       32.6855970722
  S         2.9690911057       13.2658949236       30.1106126294
  S        10.1672187758       15.5938886415       30.1036024233
  S         2.9969391997       15.6123477304       32.6647515774
  S        10.2416422579       13.3239273240       32.9703326260
  S         7.4934819495       16.3543203989       36.7709654511
  S         0.1471276114       18.7499044781       36.3400276884
  S         2.0708233536       21.0708085773       37.8874978477
  S         5.4896648134       13.8614376969       37.8997371086
  S         8.2182678179       18.0385154277       31.4032571785
  S         4.8561666769       23.6356804592       31.4191038659
  S         8.2433519813       23.7105565616       31.2964951256
  S         4.8882857940       18.0939020783       31.3601479163
  S         2.9886768385       24.5164889460       31.3929759280
  S        10.0917480382       17.1737432121       31.4368284764
  S         3.0204309814       17.2157489940       31.3562516808
  S        10.1214283279       24.5686153778       31.3221838684
  S         7.3670801328       14.7094301879       38.0089528233
  S         0.1592721352       20.2823394009       37.7306493618
  S        11.9742852717        9.1088264639       33.6183863718
  S        16.8268676309        0.6505505327       33.4678274528
  S        19.4665253956        5.8149387828       27.0082081571
  S        14.6272016581       10.2402892762       26.9731205168
  S        19.3793324772       10.2364894061       35.7428804070
  S        14.5223172593        5.8165236296       35.8225589595
  S        14.2258613569       12.2627608642       26.9870374988
  S        19.8517980372        3.7897202526       26.9977793571
  S        14.0924991925        3.7950891024       35.8001931934
  S        19.8029231040       12.2596079635       35.7497151679
  S        17.2366167157        2.6698180511       33.6067959638
  S        11.6200989394        7.0776168304       33.3827385689
  S        13.5709718736        9.3454003194       34.9295660121
  S        15.1506455196        0.2062576735       34.6007492918
  S        17.8978702292        6.2138068665       28.2987588385
  S        16.1827588916        9.8338861109       28.2812232667
  S        17.8374718966        9.8511647657       34.4167913905
  S        16.1079108009        6.2173258536       34.5523985257
  S        12.6409964744       12.6446611214       28.2630349231
  S        10.9214949305        3.4058507422       28.2830352861
  S        12.5648792278        3.4235505146       34.4549509741
  S        11.6269624333       12.5524766026       34.4558702434
  S        18.7162987399        2.9719876019       35.0246056278
  S        20.4099802078        6.6103349290       34.4755161055
  S        12.7859900662        9.8705677404       36.7700935306
  S        15.8059593960       12.3303702384       36.2316748476
  S        18.6687183688        6.7804646079       30.1325600808
  S        15.3970332681        9.1592189354       30.0697615833
  S        18.6314813408        9.2399561523       32.6059562722
  S        15.3794858232        6.8524554926       32.7214589770
  S        13.4360884592        0.4115498516       30.0986704143
  S        20.5947331965        2.7017335799       30.0978659652
  S        13.3794193560        2.8141341404       32.6518334150
  S        20.6451975622        0.4250160189       33.0483696334
  S        17.8486904693        3.4945880833       36.8317310312
  S        10.4361726571        5.9645027828       36.3767256226
  S        12.4395337059        8.2173855291       37.9605551714
  S        15.7311096572        1.0330911246       37.8368283879
  S        18.6635819417        5.1522668088       31.4089972847
  S        15.2786705764       10.7194042424       31.4265653971
  S        18.6825505718       10.8423864606       31.2984818435
  S        15.3404834451        5.2644398455       31.3936530632
  S        13.3863005155       11.5453729938       31.3566456639
  S        20.5272360737        4.2631633430       31.4527026673
  S        13.4573854763        4.4206524565       31.3512310357
  S        20.5622427179       11.6980231176       31.3137576191
  S        17.6408337506        1.8181339202       38.0278438585
  S        10.4721781476        7.6007474783       37.6630128494
  S        12.0165176525       21.9768290568       33.4844183316
  S        16.9243600013       13.5730460362       33.2862563066
  S        19.4546641761       18.6886845460       26.9611020087
  S        14.6066223735       23.1017889169       26.9922345044
  S        19.2077853430       23.0217901243       36.0308386995
  S        14.5958993201       18.7089362114       35.7552336426
  S        14.2055791243       25.1240009351       26.9823188396
  S        19.8495911678       16.6652377369       26.9983808418
  S        14.1676145434       16.6866856557       35.7470694937
  S        19.7459926325       25.0282267794       36.0870091593
  S        17.3121406851       15.5939387680       33.4958114334
  S        11.6211852628       19.9571242682       33.3230101982
  S        13.5162259551       22.2731225331       34.8828550239
  S        15.2400103514       13.0902810507       34.3899630940
  S        17.8813796568       19.1116200180       28.2382331372
  S        16.1819812393       22.7146522005       28.2804095640
  S        17.8039254224       22.6393126330       34.5546683057
  S        16.1520417666       19.1019100884       34.4493782868
  S        12.6498451745       25.5270406209       28.2877307838
  S        10.9429331888       16.2521908843       28.3024734180
  S        12.6219907233       16.3177842757       34.4249177080
  S        10.9132840910       25.5091660221       34.4772643676
  S        18.7946106273       15.8929716660       34.9075405982
  S        20.4530213388       19.4892804904       34.4264462804
  S        12.6734610517       22.7562823802       36.7137186037
  S        15.7407132546       25.2271792118       36.4518244449
  S        18.6352100903       19.7324292088       30.0643599406
  S        15.4248131812       22.0916243858       30.1003458432