     582
 i =      125, E =     -5927.9363327459
  S         9.1190950000        3.7928950000       23.9533055431
  S         4.2878150000       12.2244950000       23.9533055431
  S         1.6716450000        7.0093950000       30.0748055431
  S         6.5029550000        2.5749950000       30.0748055431
  S         1.6716450000        2.5749950000       21.5762055430
  S         6.5029550000        7.0093950000       21.5762055430
  S         6.9039650000        0.5763950000       30.0748055431
  S         1.2706450000        9.0079950000       30.0748055431
  S         6.9039650000        9.0079950000       21.5762055430
  S         1.2706450000        0.5763950000       21.5762055430
  S         3.8867850000       10.2258950000       23.9533055431
  S         9.5200950000        5.7914950000       23.9533055431
  S         7.5650250000        3.4442250000       22.6646055430
  S         5.8418950000       12.5731650000       22.6646055430
  S         3.2257650000        6.6607250000       28.7860955430
  S         4.9488550000        2.9236650000       28.7860955430
  S         3.2257650000        2.9236650000       22.8648955431
  S         4.9488550000        6.6607250000       22.8648955431
  S         8.4580450000        0.2277250000       28.7860955430
  S        10.1811650000        9.3566650000       28.7860955430
  S         8.4580450000        9.3566650000       22.8648955431
  S        10.1811650000        0.2277250000       22.8648955431
  S         2.3327050000        9.8772250000       22.6646055430
  S         0.6095950000        6.1401650000       22.6646055430
  S         8.3688950000        2.7951350000       20.8981855430
  S         5.0380050000        0.3562550000       20.8981855430
  S         2.4218550000        6.0116350000       27.0196755431
  S         5.7527450000        3.5727550000       27.0196755431
  S         2.4218550000        3.5727550000       24.6313255430
  S         5.7527450000        6.0116350000       24.6313255430
  S         7.6541750000       12.4446350000       27.0196755431
  S         0.5204350000       10.0057550000       27.0196755431
  S         7.6541750000       10.0057550000       24.6313255430
  S         0.5204350000       12.4446350000       24.6313255430
  S         3.1366050000        9.2281350000       20.8981855430
  S        10.2703150000        6.7892550000       20.8981855430
  S         8.3878550000        4.3717350000       19.5945455430
  S         5.0190650000       11.6456550000       19.5945455430
  S         2.4029250000        7.5882350000       25.7160555431
  S         5.7716750000        1.9961550000       25.7160555431
  S         2.4029250000        1.9961550000       25.9349455430
  S         5.7716750000        7.5882350000       25.9349455430
  S         7.6352050000        1.1552350000       25.7160555431
  S         0.5394050000        8.4291550000       25.7160555431
  S         7.6352050000        8.4291550000       25.9349455430
  S         0.5394050000        1.1552350000       25.9349455430
  S         3.1555450000       10.8047350000       19.5945455430
  S        10.2513850000        5.2126550000       19.5945455430
  S         9.1190950000       16.6588950000       23.9533055431
  S         4.2878150000       25.0904950000       23.9533055431
  S         1.6716450000       19.8753950000       30.0748055431
  S         6.5029550000       15.4409950000       30.0748055431
  S         1.6716450000       15.4409950000       21.5762055430
  S         6.5029550000       19.8753950000       21.5762055430
  S         6.9039650000       13.4423950000       30.0748055431
  S         1.2706450000       21.8739950000       30.0748055431
  S         6.9039650000       21.8739950000       21.5762055430
  S         1.2706450000       13.4423950000       21.5762055430
  S         3.8867850000       23.0918950000       23.9533055431
  S         9.5200950000       18.6574950000       23.9533055431
  S         7.5650250000       16.3102250000       22.6646055430
  S         5.8418950000       25.4391650000       22.6646055430
  S         3.2257650000       19.5267250000       28.7860955430
  S         4.9488550000       15.7896650000       28.7860955430
  S         3.2257650000       15.7896650000       22.8648955431
  S         4.9488550000       19.5267250000       22.8648955431
  S         8.4580450000       13.0937250000       28.7860955430
  S        10.1811650000       22.2226650000       28.7860955430
  S         8.4580450000       22.2226650000       22.8648955431
  S        10.1811650000       13.0937250000       22.8648955431
  S         2.3327050000       22.7432250000       22.6646055430
  S         0.6095950000       19.0061650000       22.6646055430
  S         8.3688950000       15.6611350000       20.8981855430
  S         5.0380050000       13.2222550000       20.8981855430
  S         2.4218550000       18.8776350000       27.0196755431
  S         5.7527450000       16.4387550000       27.0196755431
  S         2.4218550000       16.4387550000       24.6313255430
  S         5.7527450000       18.8776350000       24.6313255430
  S         7.6541750000       25.3106350000       27.0196755431
  S         0.5204350000       22.8717550000       27.0196755431
  S         7.6541750000       22.8717550000       24.6313255430
  S         0.5204350000       25.3106350000       24.6313255430
  S         3.1366050000       22.0941350000       20.8981855430
  S        10.2703150000       19.6552550000       20.8981855430
  S         8.3878550000       17.2377350000       19.5945455430
  S         5.0190650000       24.5116550000       19.5945455430
  S         2.4029250000       20.4542350000       25.7160555431
  S         5.7716750000       14.8621550000       25.7160555431
  S         2.4029250000       14.8621550000       25.9349455430
  S         5.7716750000       20.4542350000       25.9349455430
  S         7.6352050000       14.0212350000       25.7160555431
  S         0.5394050000       21.2951550000       25.7160555431
  S         7.6352050000       21.2951550000       25.9349455430
  S         0.5394050000       14.0212350000       25.9349455430
  S         3.1555450000       23.6707350000       19.5945455430
  S        10.2513850000       18.0786550000       19.5945455430
  S        19.5836850000        3.7928950000       23.9533055431
  S        14.7524050000       12.2244950000       23.9533055431
  S        12.1362650000        7.0093950000       30.0748055431
  S        16.9675550000        2.5749950000       30.0748055431
  S        12.1362650000        2.5749950000       21.5762055430
  S        16.9675550000        7.0093950000       21.5762055430
  S        17.3685550000        0.5763950000       30.0748055431
  S        11.7352450000        9.0079950000       30.0748055431
  S        17.3685550000        9.0079950000       21.5762055430
  S        11.7352450000        0.5763950000       21.5762055430
  S        14.3514050000       10.2258950000       23.9533055431
  S        19.9847250000        5.7914950000       23.9533055431
  S        18.0296050000        3.4442250000       22.6646055430
  S        16.3064950000       12.5731650000       22.6646055430
  S        13.6903550000        6.6607250000       28.7860955430
  S        15.4134750000        2.9236650000       28.7860955430
  S        13.6903550000        2.9236650000       22.8648955431
  S        15.4134750000        6.6607250000       22.8648955431
  S        18.9226550000        0.2277250000       28.7860955430
  S        20.6457550000        9.3566650000       28.7860955430
  S        18.9226550000        9.3566650000       22.8648955431
  S        20.6457550000        0.2277250000       22.8648955431
  S        12.7972950000        9.8772250000       22.6646055430
  S        11.0742150000        6.1401650000       22.6646055430
  S        18.8335050000        2.7951350000       20.8981855430
  S        15.5026250000        0.3562550000       20.8981855430
  S        12.8864450000        6.0116350000       27.0196755431
  S        16.2173450000        3.5727550000       27.0196755431
  S        12.8864450000        3.5727550000       24.6313255430
  S        16.2173450000        6.0116350000       24.6313255430
  S        18.1187550000       12.4446350000       27.0196755431
  S        10.9850650000       10.0057550000       27.0196755431
  S        18.1187550000       10.0057550000       24.6313255430
  S        10.9850650000       12.4446350000       24.6313255430
  S        13.6012050000        9.2281350000       20.8981855430
  S        20.7349050000        6.7892550000       20.8981855430
  S        18.8524350000        4.3717350000       19.5945455430
  S        15.4836650000       11.6456550000       19.5945455430
  S        12.8675250000        7.5882350000       25.7160555431
  S        16.2363050000        1.9961550000       25.7160555431
  S        12.8675250000        1.9961550000       25.9349455430
  S        16.2363050000        7.5882350000       25.9349455430
  S        18.0998250000        1.1552350000       25.7160555431
  S        11.0039850000        8.4291550000       25.7160555431
  S        18.0998250000        8.4291550000       25.9349455430
  S        11.0039850000        1.1552350000       25.9349455430
  S        13.6201250000       10.8047350000       19.5945455430
  S        20.7159750000        5.2126550000       19.5945455430
  S        19.5836850000       16.6588950000       23.9533055431
  S        14.7524050000       25.0904950000       23.9533055431
  S        12.1362650000       19.8753950000       30.0748055431
  S        16.9675550000       15.4409950000       30.0748055431
  S        12.1362650000       15.4409950000       21.5762055430
  S        16.9675550000       19.8753950000       21.5762055430
  S        17.3685550000       13.4423950000       30.0748055431
  S        11.7352450000       21.8739950000       30.0748055431
  S        17.3685550000       21.8739950000       21.5762055430
  S        11.7352450000       13.4423950000       21.5762055430
  S        14.3514050000       23.0918950000       23.9533055431
  S        19.9847250000       18.6574950000       23.9533055431
  S        18.0296050000       16.3102250000       22.6646055430
  S        16.3064950000       25.4391650000       22.6646055430
  S        13.6903550000       19.5267250000       28.7860955430
  S        15.4134750000       15.7896650000       28.7860955430
  S        13.6903550000       15.7896650000       22.8648955431
  S        15.4134750000       19.5267250000       22.8648955431
  S        18.9226550000       13.0937250000       28.7860955430
  S        20.6457550000       22.2226650000       28.7860955430
  S        18.9226550000       22.2226650000       22.8648955431
  S        20.6457550000       13.0937250000       22.8648955431
  S        12.7972950000       22.7432250000       22.6646055430
  S        11.0742150000       19.0061650000       22.6646055430
  S        18.8335050000       15.6611350000       20.8981855430
  S        15.5026250000       13.2222550000       20.8981855430
  S        12.8864450000       18.8776350000       27.0196755431
  S        16.2173450000       16.4387550000       27.0196755431
  S        12.8864450000       16.4387550000       24.6313255430
  S        16.2173450000       18.8776350000       24.6313255430
  S        18.1187550000       25.3106350000       27.0196755431
  S        10.9850650000       22.8717550000       27.0196755431
  S        18.1187550000       22.8717550000       24.6313255430
  S        10.9850650000       25.3106350000       24.6313255430
  S        13.6012050000       22.0941350000       20.8981855430
  S        20.7349050000       19.6552550000       20.8981855430
  S        18.8524350000       17.2377350000       19.5945455430
  S        15.4836650000       24.5116550000       19.5945455430
  S        12.8675250000       20.4542350000       25.7160555431
  S        16.2363050000       14.8621550000       25.7160555431
  S        12.8675250000       14.8621550000       25.9349455430
  S        16.2363050000       20.4542350000       25.9349455430
  S        18.0998250000       14.0212350000       25.7160555431
  S        11.0039850000       21.2951550000       25.7160555431
  S        18.0998250000       21.2951550000       25.9349455430
  S        11.0039850000       14.0212350000       25.9349455430
  S        13.6201250000       23.6707350000       19.5945455430
  S        20.7159750000       18.0786550000       19.5945455430
  S        30.0483050000        3.7928950000       23.9533055431
  S        25.2170050000       12.2244950000       23.9533055431
  S        22.6008550000        7.0093950000       30.0748055431
  S        27.4321350000        2.5749950000       30.0748055431
  S        22.6008550000        2.5749950000       21.5762055430
  S        27.4321350000        7.0093950000       21.5762055430
  S        27.8331750000        0.5763950000       30.0748055431
  S        22.1998550000        9.0079950000       30.0748055431
  S        27.8331750000        9.0079950000       21.5762055430
  S        22.1998550000        0.5763950000       21.5762055430
  S        24.8160050000       10.2258950000       23.9533055431
  S        30.4493050000        5.7914950000       23.9533055431
  S        28.4942050000        3.4442250000       22.6646055430
  S        26.7711050000       12.5731650000       22.6646055430
  S        24.1549450000        6.6607250000       28.7860955430
  S        25.8780550000        2.9236650000       28.7860955430
  S        24.1549450000        2.9236650000       22.8648955431
  S        25.8780550000        6.6607250000       22.8648955431
  S        29.3872450000        0.2277250000       28.7860955430
  S        31.1103750000        9.3566650000       28.7860955430
  S        29.3872450000        9.3566650000       22.8648955431
  S        31.1103750000        0.2277250000       22.8648955431
  S        23.2619250000        9.8772250000       22.6646055430
  S        21.5388050000        6.1401650000       22.6646055430
  S        29.2980950000        2.7951350000       20.8981855430
  S        25.9672050000        0.3562550000       20.8981855430
  S        23.3510750000        6.0116350000       27.0196755431
  S        26.6819650000        3.5727550000       27.0196755431
  S        23.3510750000        3.5727550000       24.6313255430
  S        26.6819650000        6.0116350000       24.6313255430
  S        28.5833550000       12.4446350000       27.0196755431
  S        21.4496450000       10.0057550000       27.0196755431
  S        28.5833550000       10.0057550000       24.6313255430
  S        21.4496450000       12.4446350000       24.6313255430
  S        24.0657950000        9.2281350000       20.8981855430
  S        31.1995250000        6.7892550000       20.8981855430
  S        29.3170350000        4.3717350000       19.5945455430
  S        25.9482750000       11.6456550000       19.5945455430
  S        23.3321150000        7.5882350000       25.7160555431
  S        26.7008850000        1.9961550000       25.7160555431
  S        23.3321150000        1.9961550000       25.9349455430
  S        26.7008850000        7.5882350000       25.9349455430
  S        28.5644150000        1.1552350000       25.7160555431
  S        21.4685850000        8.4291550000       25.7160555431
  S        28.5644150000        8.4291550000       25.9349455430
  S        21.4685850000        1.1552350000       25.9349455430
  S        24.0847550000       10.8047350000       19.5945455430
  S        31.1805650000        5.2126550000       19.5945455430
  S        30.0483050000       16.6588950000       23.9533055431
  S        25.2170050000       25.0904950000       23.9533055431
  S        22.6008550000       19.8753950000       30.0748055431
  S        27.4321350000       15.4409950000       30.0748055431
  S        22.6008550000       15.4409950000       21.5762055430
  S        27.4321350000       19.8753950000       21.5762055430
  S        27.8331750000       13.4423950000       30.0748055431
  S        22.1998550000       21.8739950000       30.0748055431
  S        27.8331750000       21.8739950000       21.5762055430
  S        22.1998550000       13.4423950000       21.5762055430
  S        24.8160050000       23.0918950000       23.9533055431
  S        30.4493050000       18.6574950000       23.9533055431
  S        28.4942050000       16.3102250000       22.6646055430
  S        26.7711050000       25.4391650000       22.6646055430
  S        24.1549450000       19.5267250000       28.7860955430
  S        25.8780550000       15.7896650000       28.7860955430
  S        24.1549450000       15.7896650000       22.8648955431
  S        25.8780550000       19.5267250000       22.8648955431
  S        29.3872450000       13.0937250000       28.7860955430
  S        31.1103750000       22.2226650000       28.7860955430
  S        29.3872450000       22.2226650000       22.8648955431
  S        31.1103750000       13.0937250000       22.8648955431
  S        23.2619250000       22.7432250000       22.6646055430
  S        21.5388050000       19.0061650000       22.6646055430
  S        29.2980950000       15.6611350000       20.8981855430
  S        25.9672050000       13.2222550000       20.8981855430
  S        23.3510750000       18.8776350000       27.0196755431
  S        26.6819650000       16.4387550000       27.0196755431
  S        23.3510750000       16.4387550000       24.6313255430
  S        26.6819650000       18.8776350000       24.6313255430
  S        28.5833550000       25.3106350000       27.0196755431
  S        21.4496450000       22.8717550000       27.0196755431
  S        28.5833550000       22.8717550000       24.6313255430
  S        21.4496450000       25.3106350000       24.6313255430
  S        24.0657950000       22.0941350000       20.8981855430
  S        31.1995250000       19.6552550000       20.8981855430
  S        29.3170350000       17.2377350000       19.5945455430
  S        25.9482750000       24.5116550000       19.5945455430
  S        23.3321150000       20.4542350000       25.7160555431
  S        26.7008850000       14.8621550000       25.7160555431
  S        23.3321150000       14.8621550000       25.9349455430
  S        26.7008850000       20.4542350000       25.9349455430
  S        28.5644150000       14.0212350000       25.7160555431
  S        21.4685850000       21.2951550000       25.7160555431
  S        28.5644150000       21.2951550000       25.9349455430
  S        21.4685850000       14.0212350000       25.9349455430
  S        24.0847550000       23.6707350000       19.5945455430
  S        31.1805650000       18.0786550000       19.5945455430
  S         1.6753932446        9.0772173030       34.3580698208
  S         6.5149352490        0.5384170899       34.2231370931
  S         9.1166389508        5.8287195045       27.8188941610
  S         4.2844079537       10.2205296480       27.8085206080
  S         9.5640673706       12.1327069672       37.8222251225
  S         4.2118860481        5.7842323111       36.6035303129
  S         3.8852845769       12.2438279612       27.8140931453
  S         9.5103503859        3.8054053861       27.7780069613
  S         3.8434040363        3.7502520210       36.5593386108
  S        11.0919941424       13.3221037739       36.9955378279
  S         6.8927461142        2.5677512762       34.2266603720
  S         1.2837023769        7.0591382578       34.1519059835
  S         3.1316487405        9.3560170854       35.8031753412
  S         4.9376308822        0.1316488751       35.5034713614
  S         7.5640504771        6.2098439563       29.1361081517
  S         5.8593895180        9.8208708761       29.0940780793
  S         8.1131486294        9.5022505480       35.6521587797
  S         5.7910639269        6.2427404133       35.3467426551
  S         2.3340861776       12.6424371495       29.1273028604
  S         0.6336943842        3.3777503555       29.0611903653
  S         2.3228160084        3.3485664932       35.2146783224
  S         0.5897906568       12.6369785695       35.2614905350
  S         8.4563838870        2.9663138308       35.5257771424
  S        10.2318088290        6.4469485850       35.3467146458
  S         2.2312575245        9.8152179408       37.6126735589
  S         5.5809197541       11.8118008563       37.2800224585
  S         8.3486583636        6.7943878171       30.9591648194
  S         5.1049030949        9.1925886198       30.9134689967
  S         8.5927981822        9.1113408658       33.6744813625
  S         5.0468930226        6.8853113329       33.5287755399
  S         3.1066214777        0.3719885869       30.9045721791
  S        10.3180208951        2.7229508133       30.8618066355
  S         3.1495994128        2.7859454774       33.4027516886
  S        10.2810308930        0.3244685984       33.4243572129
  S         7.6975791366        3.5677376185       37.3581501296
  S         0.1873893832        5.8075823156       37.0998724179
  S         2.0353665905        8.1074714760       38.7604569950
  S         5.7299634862        1.1312166027       38.6450293187
  S         8.3965331482        5.1622695780       32.2298621934
  S         5.0610563652       10.7844684513       32.2335272684
  S         8.3656106957       10.7772120842       32.5265884831
  S         5.0438628742        5.3166466702       32.1759738642
  S         3.1771213700       11.6283607565       32.2424680685
  S        10.2692540458        4.2905319122       32.2111909076
  S         3.1879161452        4.4111818161       32.1220857167
  S        10.1712836253       11.8535354387       32.3095442563
  S         7.6298088608        1.9608687182       38.6568755246
  S         0.1371192634        7.3065999454       38.5251606784
  S         1.6374112679       21.7758712458       34.1720770925
  S         6.5025832243       13.3648948600       34.4291561380
  S         9.0951217271       18.6793632798       27.8249047114
  S         4.2919555347       23.0689938499       27.7887582989
  S         9.2244562801       23.0910723419       36.6572855566
  S         4.4194886106       18.7819372621       36.6681035825
  S         3.8913653297       25.0913416575       27.7900363225
  S         9.5089617764       16.6594508892       27.8022571316
  S         3.8957117042       16.7884071321       36.8990220090
  S         9.5821310623       25.1254810943       36.5913662733
  S         6.9917232059       15.3765682697       34.4774012311
  S         1.2436248063       19.7535618295       34.3190509747
  S         3.2463141019       22.2501658198       35.3869257517
  S         4.8527283976       12.8372501123       35.6481543688
  S         7.5384777998       19.0541683011       29.1403469295
  S         5.8600333579       22.6706997434       29.0811231024
  S         7.6522294552       22.6209488739       35.3944975920
  S         5.9043615332       19.0151783681       35.2604343921
  S         2.3293110616       25.4833728353       29.0920137332
  S         0.6260737720       16.2466700258       29.0702040928
  S         2.4024876154       16.1836053812       35.5851591874
  S         0.5888586771       25.4851874465       35.2725942588
  S         8.6808697435       15.6740474919       35.7317396535
  S        10.3004112071       19.4943547415       35.9154966137
  S         2.5590810532       22.9554882453       37.2082518931
  S         5.6791550345       25.2602026321       37.3411694658
  S         8.3148698699       19.6512633047       30.9616243991
  S         5.0944950635       22.0529475896       30.9011347210
  S         8.4045628495       21.9576094411       33.5839709871
  S         5.0160366645       19.5495939672       33.4626315409
  S         3.1235467050       13.2403568491       30.9447439939
  S        10.3546175054       15.6223579279       30.9047275471
  S         3.2089649777       15.4601340038       33.8315173492
  S        10.3361287492       13.3726075083       33.6564475249
  S         8.2437691345       17.0337317666       37.1798723154
  S         0.4924279128       18.9421490476       37.5139871752
  S         2.5317206222       21.4239431751       38.5977296856
  S         5.7855811069       13.0592724099       38.9161396618
  S         8.4069114468       18.0350847268       32.2570612885
  S         5.0498638401       23.6554865473       32.2087032443
  S         8.4040638214       23.5109741473       32.2131235124
  S         4.9795257275       17.8771957051       32.2488992484
  S         3.1694122231       24.5094372338       32.2213770743
  S        10.3009360215       17.2145783190       32.2221959047
  S         3.1462393732       16.9473492978       32.3845400101
  S        10.2595150066       24.4135511867       32.1664199412
  S         7.5336526252       16.1653469676       38.9154160361
  S         0.6240589381       20.6206933841       38.7142562490
  S        12.1299428802        9.0187569301       34.3721904798
  S        16.9477537350        0.5000877111       34.3210543656
  S        19.5768221985        5.8033809918       27.7793651554
  S        14.7401863900       10.2585684403       27.8045504574
  S        19.5991617948       10.1608591499       36.5840791128
  S        14.7865450178        5.8065210951       36.6018796314
  S        14.3470686793       12.2825612911       27.8521383984
  S        19.9684426367        3.7796128230       27.7777676998
  S        14.4049117445        3.7753965317       36.5977025355
  S        20.0117520250       12.1843667824       36.6141207628
  S        17.3462914234        2.5187513213       34.1525750244
  S        11.8836335921        6.9617892336       34.2299400985
  S        13.6624193501        9.4059159191       35.7163222073
  S        15.4515434714        0.2110012765       35.7251898611
  S        18.0215540013        6.2066658448       29.0867921721
  S        16.3109315524        9.8329368207       29.0872090736
  S        18.0374639598        9.7922811192       35.2763397717
  S        16.3255274682        6.2260426382       35.2821257820
  S        12.7843074258       12.6626799603       29.1579998995
  S        11.0830725518        3.3804565345       29.0571771639
  S        12.8415963223        3.3633521182       35.3048426687
  S        11.6469151672       12.5872832125       35.2081094324
  S        19.0000027542        2.9908807660       35.3077540883
  S        20.6583508199        6.6156200342       35.7172324736
  S        12.7783915978        9.9452944622       37.5191079048
  S        15.9169975119       12.3165997190       37.2550309664
  S        18.8130946192        6.8410120195       30.8886620116
  S        15.5444222792        9.1507966157       30.8810041010
  S        18.8011577015        9.2031696178       33.4449757683
  S        15.5391671952        6.8260945548       33.4640228075
  S        13.5952752371        0.3822518887       30.9211908302
  S        20.7595575038        2.7739098747       30.8923517418
  S        13.6016329366        2.7510814330       33.4793776463
  S        20.8090571890        0.3865372046       33.4652977576
  S        18.3790432146        3.7283986066       37.1389222270
  S        10.7877372547        5.8825769956       37.2510846182
  S        12.5652297455        8.3181174151       38.7944898964
  S        16.4780358271        1.4231185528       38.7271124759
  S        18.8776112054        5.2605483811       32.2214155170
  S        15.4524973224       10.7016529062       32.2514613018
  S        18.8405376558       10.8228726780       32.1565728541
  S        15.5004468500        5.2217513719       32.1544787945
  S        13.5672209414       11.5458817035       32.2280209424
  S        20.7470273950        4.3839378862       32.1905183385
  S        13.6301412428        4.3494849263       32.1637968474
  S        20.7186053106       11.6775346654       32.1566398233
  S        18.3861967994        2.2130159135       38.5475492200
  S        10.6741311457        7.5292187212       38.5142272609
  S        12.2550665648       21.7555098782       34.2534995302
  S        17.0413936292       13.4491899485       34.2530242596
  S        19.6014140373       18.6764927574       27.7899497618
  S        14.7462518948       23.0567510455       27.8173780566
  S        19.5677608329       23.0882940093       36.5733035111
  S        16.4827936620       19.5195641734       37.2318858589
  S        14.3616193731       25.0822102175       27.8111399673
  S        20.0065939442       16.6547949365       27.7740465603
  S        15.0981428707       18.2643620808       38.1258693661
  S        20.0187010973       25.1069866442       36.5860637853
  S        17.4259393146       15.4723591188       34.4828262988
  S        11.8275946474       19.7341339174       34.5337836170
  S        13.8533561768       22.2850873556       35.4380914803
  S        15.3731120547       13.0293551676       35.3961796031
  S        18.0147201397       19.0559972066       29.0649991342
  S        16.3039221521       22.6450725298       29.1198453558
  S        18.0077365363       22.7333400125       35.2638686111
  S        17.0699863693       18.9137169365       35.3924388333
  S        12.8046876906       25.4946562442       29.1138207987
  S        11.0899365597       16.2649628341       29.0813958890
  S        13.1323353243       16.1562219360       35.9614077423
  S        11.1040497813       25.5166965824       35.2449772773
  S        19.0134861896       15.7027492182       35.7976327930
  S        20.6150762479       19.5034070909       35.1591242266
  S        13.1832495207       23.0708790492       37.2314871487
  S        16.2979023525       25.4601042756       37.5549266073
  S        18.7479724380       19.6152015786       30.9153029590
  S        15.5270103411       22.0294730354       30.9370422853