     582
 i =      128, E =     -5927.9366394909
  S         9.1190950000        3.7928950000       23.9001392958
  S         4.2878150000       12.2244950000       23.9001392958
  S         1.6716450000        7.0093950000       30.0216392958
  S         6.5029550000        2.5749950000       30.0216392958
  S         1.6716450000        2.5749950000       21.5230392958
  S         6.5029550000        7.0093950000       21.5230392958
  S         6.9039650000        0.5763950000       30.0216392958
  S         1.2706450000        9.0079950000       30.0216392958
  S         6.9039650000        9.0079950000       21.5230392958
  S         1.2706450000        0.5763950000       21.5230392958
  S         3.8867850000       10.2258950000       23.9001392958
  S         9.5200950000        5.7914950000       23.9001392958
  S         7.5650250000        3.4442250000       22.6114392958
  S         5.8418950000       12.5731650000       22.6114392958
  S         3.2257650000        6.6607250000       28.7329292958
  S         4.9488550000        2.9236650000       28.7329292958
  S         3.2257650000        2.9236650000       22.8117292958
  S         4.9488550000        6.6607250000       22.8117292958
  S         8.4580450000        0.2277250000       28.7329292958
  S        10.1811650000        9.3566650000       28.7329292958
  S         8.4580450000        9.3566650000       22.8117292958
  S        10.1811650000        0.2277250000       22.8117292958
  S         2.3327050000        9.8772250000       22.6114392958
  S         0.6095950000        6.1401650000       22.6114392958
  S         8.3688950000        2.7951350000       20.8450192958
  S         5.0380050000        0.3562550000       20.8450192958
  S         2.4218550000        6.0116350000       26.9665092958
  S         5.7527450000        3.5727550000       26.9665092958
  S         2.4218550000        3.5727550000       24.5781592958
  S         5.7527450000        6.0116350000       24.5781592958
  S         7.6541750000       12.4446350000       26.9665092958
  S         0.5204350000       10.0057550000       26.9665092958
  S         7.6541750000       10.0057550000       24.5781592958
  S         0.5204350000       12.4446350000       24.5781592958
  S         3.1366050000        9.2281350000       20.8450192958
  S        10.2703150000        6.7892550000       20.8450192958
  S         8.3878550000        4.3717350000       19.5413792958
  S         5.0190650000       11.6456550000       19.5413792958
  S         2.4029250000        7.5882350000       25.6628892958
  S         5.7716750000        1.9961550000       25.6628892958
  S         2.4029250000        1.9961550000       25.8817792958
  S         5.7716750000        7.5882350000       25.8817792958
  S         7.6352050000        1.1552350000       25.6628892958
  S         0.5394050000        8.4291550000       25.6628892958
  S         7.6352050000        8.4291550000       25.8817792958
  S         0.5394050000        1.1552350000       25.8817792958
  S         3.1555450000       10.8047350000       19.5413792958
  S        10.2513850000        5.2126550000       19.5413792958
  S         9.1190950000       16.6588950000       23.9001392958
  S         4.2878150000       25.0904950000       23.9001392958
  S         1.6716450000       19.8753950000       30.0216392958
  S         6.5029550000       15.4409950000       30.0216392958
  S         1.6716450000       15.4409950000       21.5230392958
  S         6.5029550000       19.8753950000       21.5230392958
  S         6.9039650000       13.4423950000       30.0216392958
  S         1.2706450000       21.8739950000       30.0216392958
  S         6.9039650000       21.8739950000       21.5230392958
  S         1.2706450000       13.4423950000       21.5230392958
  S         3.8867850000       23.0918950000       23.9001392958
  S         9.5200950000       18.6574950000       23.9001392958
  S         7.5650250000       16.3102250000       22.6114392958
  S         5.8418950000       25.4391650000       22.6114392958
  S         3.2257650000       19.5267250000       28.7329292958
  S         4.9488550000       15.7896650000       28.7329292958
  S         3.2257650000       15.7896650000       22.8117292958
  S         4.9488550000       19.5267250000       22.8117292958
  S         8.4580450000       13.0937250000       28.7329292958
  S        10.1811650000       22.2226650000       28.7329292958
  S         8.4580450000       22.2226650000       22.8117292958
  S        10.1811650000       13.0937250000       22.8117292958
  S         2.3327050000       22.7432250000       22.6114392958
  S         0.6095950000       19.0061650000       22.6114392958
  S         8.3688950000       15.6611350000       20.8450192958
  S         5.0380050000       13.2222550000       20.8450192958
  S         2.4218550000       18.8776350000       26.9665092958
  S         5.7527450000       16.4387550000       26.9665092958
  S         2.4218550000       16.4387550000       24.5781592958
  S         5.7527450000       18.8776350000       24.5781592958
  S         7.6541750000       25.3106350000       26.9665092958
  S         0.5204350000       22.8717550000       26.9665092958
  S         7.6541750000       22.8717550000       24.5781592958
  S         0.5204350000       25.3106350000       24.5781592958
  S         3.1366050000       22.0941350000       20.8450192958
  S        10.2703150000       19.6552550000       20.8450192958
  S         8.3878550000       17.2377350000       19.5413792958
  S         5.0190650000       24.5116550000       19.5413792958
  S         2.4029250000       20.4542350000       25.6628892958
  S         5.7716750000       14.8621550000       25.6628892958
  S         2.4029250000       14.8621550000       25.8817792958
  S         5.7716750000       20.4542350000       25.8817792958
  S         7.6352050000       14.0212350000       25.6628892958
  S         0.5394050000       21.2951550000       25.6628892958
  S         7.6352050000       21.2951550000       25.8817792958
  S         0.5394050000       14.0212350000       25.8817792958
  S         3.1555450000       23.6707350000       19.5413792958
  S        10.2513850000       18.0786550000       19.5413792958
  S        19.5836850000        3.7928950000       23.9001392958
  S        14.7524050000       12.2244950000       23.9001392958
  S        12.1362650000        7.0093950000       30.0216392958
  S        16.9675550000        2.5749950000       30.0216392958
  S        12.1362650000        2.5749950000       21.5230392958
  S        16.9675550000        7.0093950000       21.5230392958
  S        17.3685550000        0.5763950000       30.0216392958
  S        11.7352450000        9.0079950000       30.0216392958
  S        17.3685550000        9.0079950000       21.5230392958
  S        11.7352450000        0.5763950000       21.5230392958
  S        14.3514050000       10.2258950000       23.9001392958
  S        19.9847250000        5.7914950000       23.9001392958
  S        18.0296050000        3.4442250000       22.6114392958
  S        16.3064950000       12.5731650000       22.6114392958
  S        13.6903550000        6.6607250000       28.7329292958
  S        15.4134750000        2.9236650000       28.7329292958
  S        13.6903550000        2.9236650000       22.8117292958
  S        15.4134750000        6.6607250000       22.8117292958
  S        18.9226550000        0.2277250000       28.7329292958
  S        20.6457550000        9.3566650000       28.7329292958
  S        18.9226550000        9.3566650000       22.8117292958
  S        20.6457550000        0.2277250000       22.8117292958
  S        12.7972950000        9.8772250000       22.6114392958
  S        11.0742150000        6.1401650000       22.6114392958
  S        18.8335050000        2.7951350000       20.8450192958
  S        15.5026250000        0.3562550000       20.8450192958
  S        12.8864450000        6.0116350000       26.9665092958
  S        16.2173450000        3.5727550000       26.9665092958
  S        12.8864450000        3.5727550000       24.5781592958
  S        16.2173450000        6.0116350000       24.5781592958
  S        18.1187550000       12.4446350000       26.9665092958
  S        10.9850650000       10.0057550000       26.9665092958
  S        18.1187550000       10.0057550000       24.5781592958
  S        10.9850650000       12.4446350000       24.5781592958
  S        13.6012050000        9.2281350000       20.8450192958
  S        20.7349050000        6.7892550000       20.8450192958
  S        18.8524350000        4.3717350000       19.5413792958
  S        15.4836650000       11.6456550000       19.5413792958
  S        12.8675250000        7.5882350000       25.6628892958
  S        16.2363050000        1.9961550000       25.6628892958
  S        12.8675250000        1.9961550000       25.8817792958
  S        16.2363050000        7.5882350000       25.8817792958
  S        18.0998250000        1.1552350000       25.6628892958
  S        11.0039850000        8.4291550000       25.6628892958
  S        18.0998250000        8.4291550000       25.8817792958
  S        11.0039850000        1.1552350000       25.8817792958
  S        13.6201250000       10.8047350000       19.5413792958
  S        20.7159750000        5.2126550000       19.5413792958
  S        19.5836850000       16.6588950000       23.9001392958
  S        14.7524050000       25.0904950000       23.9001392958
  S        12.1362650000       19.8753950000       30.0216392958
  S        16.9675550000       15.4409950000       30.0216392958
  S        12.1362650000       15.4409950000       21.5230392958
  S        16.9675550000       19.8753950000       21.5230392958
  S        17.3685550000       13.4423950000       30.0216392958
  S        11.7352450000       21.8739950000       30.0216392958
  S        17.3685550000       21.8739950000       21.5230392958
  S        11.7352450000       13.4423950000       21.5230392958
  S        14.3514050000       23.0918950000       23.9001392958
  S        19.9847250000       18.6574950000       23.9001392958
  S        18.0296050000       16.3102250000       22.6114392958
  S        16.3064950000       25.4391650000       22.6114392958
  S        13.6903550000       19.5267250000       28.7329292958
  S        15.4134750000       15.7896650000       28.7329292958
  S        13.6903550000       15.7896650000       22.8117292958
  S        15.4134750000       19.5267250000       22.8117292958
  S        18.9226550000       13.0937250000       28.7329292958
  S        20.6457550000       22.2226650000       28.7329292958
  S        18.9226550000       22.2226650000       22.8117292958
  S        20.6457550000       13.0937250000       22.8117292958
  S        12.7972950000       22.7432250000       22.6114392958
  S        11.0742150000       19.0061650000       22.6114392958
  S        18.8335050000       15.6611350000       20.8450192958
  S        15.5026250000       13.2222550000       20.8450192958
  S        12.8864450000       18.8776350000       26.9665092958
  S        16.2173450000       16.4387550000       26.9665092958
  S        12.8864450000       16.4387550000       24.5781592958
  S        16.2173450000       18.8776350000       24.5781592958
  S        18.1187550000       25.3106350000       26.9665092958
  S        10.9850650000       22.8717550000       26.9665092958
  S        18.1187550000       22.8717550000       24.5781592958
  S        10.9850650000       25.3106350000       24.5781592958
  S        13.6012050000       22.0941350000       20.8450192958
  S        20.7349050000       19.6552550000       20.8450192958
  S        18.8524350000       17.2377350000       19.5413792958
  S        15.4836650000       24.5116550000       19.5413792958
  S        12.8675250000       20.4542350000       25.6628892958
  S        16.2363050000       14.8621550000       25.6628892958
  S        12.8675250000       14.8621550000       25.8817792958
  S        16.2363050000       20.4542350000       25.8817792958
  S        18.0998250000       14.0212350000       25.6628892958
  S        11.0039850000       21.2951550000       25.6628892958
  S        18.0998250000       21.2951550000       25.8817792958
  S        11.0039850000       14.0212350000       25.8817792958
  S        13.6201250000       23.6707350000       19.5413792958
  S        20.7159750000       18.0786550000       19.5413792958
  S        30.0483050000        3.7928950000       23.9001392958
  S        25.2170050000       12.2244950000       23.9001392958
  S        22.6008550000        7.0093950000       30.0216392958
  S        27.4321350000        2.5749950000       30.0216392958
  S        22.6008550000        2.5749950000       21.5230392958
  S        27.4321350000        7.0093950000       21.5230392958
  S        27.8331750000        0.5763950000       30.0216392958
  S        22.1998550000        9.0079950000       30.0216392958
  S        27.8331750000        9.0079950000       21.5230392958
  S        22.1998550000        0.5763950000       21.5230392958
  S        24.8160050000       10.2258950000       23.9001392958
  S        30.4493050000        5.7914950000       23.9001392958
  S        28.4942050000        3.4442250000       22.6114392958
  S        26.7711050000       12.5731650000       22.6114392958
  S        24.1549450000        6.6607250000       28.7329292958
  S        25.8780550000        2.9236650000       28.7329292958
  S        24.1549450000        2.9236650000       22.8117292958
  S        25.8780550000        6.6607250000       22.8117292958
  S        29.3872450000        0.2277250000       28.7329292958
  S        31.1103750000        9.3566650000       28.7329292958
  S        29.3872450000        9.3566650000       22.8117292958
  S        31.1103750000        0.2277250000       22.8117292958
  S        23.2619250000        9.8772250000       22.6114392958
  S        21.5388050000        6.1401650000       22.6114392958
  S        29.2980950000        2.7951350000       20.8450192958
  S        25.9672050000        0.3562550000       20.8450192958
  S        23.3510750000        6.0116350000       26.9665092958
  S        26.6819650000        3.5727550000       26.9665092958
  S        23.3510750000        3.5727550000       24.5781592958
  S        26.6819650000        6.0116350000       24.5781592958
  S        28.5833550000       12.4446350000       26.9665092958
  S        21.4496450000       10.0057550000       26.9665092958
  S        28.5833550000       10.0057550000       24.5781592958
  S        21.4496450000       12.4446350000       24.5781592958
  S        24.0657950000        9.2281350000       20.8450192958
  S        31.1995250000        6.7892550000       20.8450192958
  S        29.3170350000        4.3717350000       19.5413792958
  S        25.9482750000       11.6456550000       19.5413792958
  S        23.3321150000        7.5882350000       25.6628892958
  S        26.7008850000        1.9961550000       25.6628892958
  S        23.3321150000        1.9961550000       25.8817792958
  S        26.7008850000        7.5882350000       25.8817792958
  S        28.5644150000        1.1552350000       25.6628892958
  S        21.4685850000        8.4291550000       25.6628892958
  S        28.5644150000        8.4291550000       25.8817792958
  S        21.4685850000        1.1552350000       25.8817792958
  S        24.0847550000       10.8047350000       19.5413792958
  S        31.1805650000        5.2126550000       19.5413792958
  S        30.0483050000       16.6588950000       23.9001392958
  S        25.2170050000       25.0904950000       23.9001392958
  S        22.6008550000       19.8753950000       30.0216392958
  S        27.4321350000       15.4409950000       30.0216392958
  S        22.6008550000       15.4409950000       21.5230392958
  S        27.4321350000       19.8753950000       21.5230392958
  S        27.8331750000       13.4423950000       30.0216392958
  S        22.1998550000       21.8739950000       30.0216392958
  S        27.8331750000       21.8739950000       21.5230392958
  S        22.1998550000       13.4423950000       21.5230392958
  S        24.8160050000       23.0918950000       23.9001392958
  S        30.4493050000       18.6574950000       23.9001392958
  S        28.4942050000       16.3102250000       22.6114392958
  S        26.7711050000       25.4391650000       22.6114392958
  S        24.1549450000       19.5267250000       28.7329292958
  S        25.8780550000       15.7896650000       28.7329292958
  S        24.1549450000       15.7896650000       22.8117292958
  S        25.8780550000       19.5267250000       22.8117292958
  S        29.3872450000       13.0937250000       28.7329292958
  S        31.1103750000       22.2226650000       28.7329292958
  S        29.3872450000       22.2226650000       22.8117292958
  S        31.1103750000       13.0937250000       22.8117292958
  S        23.2619250000       22.7432250000       22.6114392958
  S        21.5388050000       19.0061650000       22.6114392958
  S        29.2980950000       15.6611350000       20.8450192958
  S        25.9672050000       13.2222550000       20.8450192958
  S        23.3510750000       18.8776350000       26.9665092958
  S        26.6819650000       16.4387550000       26.9665092958
  S        23.3510750000       16.4387550000       24.5781592958
  S        26.6819650000       18.8776350000       24.5781592958
  S        28.5833550000       25.3106350000       26.9665092958
  S        21.4496450000       22.8717550000       26.9665092958
  S        28.5833550000       22.8717550000       24.5781592958
  S        21.4496450000       25.3106350000       24.5781592958
  S        24.0657950000       22.0941350000       20.8450192958
  S        31.1995250000       19.6552550000       20.8450192958
  S        29.3170350000       17.2377350000       19.5413792958
  S        25.9482750000       24.5116550000       19.5413792958
  S        23.3321150000       20.4542350000       25.6628892958
  S        26.7008850000       14.8621550000       25.6628892958
  S        23.3321150000       14.8621550000       25.8817792958
  S        26.7008850000       20.4542350000       25.8817792958
  S        28.5644150000       14.0212350000       25.6628892958
  S        21.4685850000       21.2951550000       25.6628892958
  S        28.5644150000       21.2951550000       25.8817792958
  S        21.4685850000       14.0212350000       25.8817792958
  S        24.0847550000       23.6707350000       19.5413792958
  S        31.1805650000       18.0786550000       19.5413792958
  S         1.6970208563        9.0869398546       34.2932901998
  S         6.5223307888        0.5885749642       34.1242953058
  S         9.1053642849        5.8358715919       27.7507940885
  S         4.2759469603       10.2227305766       27.7577864559
  S         9.5758706443       12.1371031220       37.7890818907
  S         4.2212543876        5.7999080242       36.5175629322
  S         3.8782068290       12.2461193048       27.7566988851
  S         9.5032480883        3.8133018457       27.7193160678
  S         3.8496100100        3.7665442639       36.4889023101
  S        11.1149261560       13.2870513406       36.9574438845
  S         6.8927614859        2.6186498095       34.1598391653
  S         1.2970784160        7.0714772423       34.0791128232
  S         3.1576540044        9.3527590656       35.7367853166
  S         4.9405390950        0.1590300296       35.3918321004
  S         7.5540351811        6.2214462433       29.0685956771
  S         5.8501978777        9.8263265681       29.0448291031
  S         8.1659028714        9.4379322477       35.6765200776
  S         5.7934575725        6.2480786894       35.2484193962
  S         2.3285208883       12.6513641844       29.0703062803
  S         0.6293508014        3.3857251531       29.0157436896
  S         2.3217512572        3.3592108756       35.1540448814
  S         0.6220122682       12.6391936445       35.1867074442
  S         8.4472032953        3.0075894983       35.4735872910
  S        10.3020284917        6.4219073238       35.2940660647
  S         2.2640822969        9.8066554070       37.5509834053
  S         5.5679237824       11.8621545351       37.2972211644
  S         8.3398325270        6.8235767644       30.8851517346
  S         5.0945481997        9.2149148862       30.8693369747
  S         8.5759109269        9.0596795615       33.6801869605
  S         5.0388242036        6.8759168492       33.4295543160
  S         3.1024786720        0.3648050435       30.8526691724
  S        10.3187812298        2.7597721874       30.8097074154
  S         3.1380271309        2.7808844823       33.3425160042
  S        10.2639000167        0.3972105992       33.3151042277
  S         7.6749051506        3.5826536425       37.3088468073
  S         0.2040124637        5.8099861249       37.0251451199
  S         2.0630620587        8.0948148176       38.6920042112
  S         5.7095804973        1.1208289714       38.5504701114
  S         8.3953449020        5.2022328531       32.1686808020
  S         5.0613817509       10.8177251529       32.1769116517
  S         8.3399897355       10.7380267213       32.5536532999
  S         5.0285307327        5.2989954150       32.0868695702
  S         3.1799049907       11.6676165056       32.1924477842
  S        10.2710507496        4.3377145774       32.1467892438
  S         3.1710828631        4.3954192567       32.0487001328
  S        10.1529050382       11.7901804650       32.2876347565
  S         7.6054325706        1.9590008371       38.5863675715
  S         0.1612489515        7.3023358261       38.4573325714
  S         1.6313004246       21.7974991372       34.1396307119
  S         6.5009148945       13.3512191229       34.4245978073
  S         9.1114068801       18.6698586531       27.7683007621
  S         4.2928357521       23.0723631346       27.7324119740
  S         9.2005321786       23.1403271970       36.5187290867
  S         4.4387116511       18.8268670063       36.6317415481
  S         3.8936549378       25.0947908568       27.7364433508
  S         9.5152958666       16.6482079976       27.7633855473
  S         3.9264763733       16.8341873955       36.8903609583
  S         9.5626771341       25.1730881907       36.4725520767
  S         7.0246445907       15.3522493803       34.4309331555
  S         1.2405941798       19.7746795173       34.2901675420
  S         3.2368279878       22.2782595308       35.3565572508
  S         4.8488103946       12.8797703715       35.6585394725
  S         7.5461311497       19.0615972879       29.0682390316
  S         5.8546193373       22.6710764101       29.0318377021
  S         7.6301571028       22.6882470080       35.2468729985
  S         5.9144402121       19.0425107541       35.2118241114
  S         2.3286823718       25.4863995249       29.0349270379
  S         0.6198157850       16.2517415951       29.0190030447
  S         2.4136295414       16.2077186042       35.6103689573
  S         0.5639068453       25.5232564196       35.2298109021
  S         8.7039755216       15.6526517723       35.7017342428
  S        10.3226310486       19.6209529816       35.7169877384
  S         2.5437315024       22.9862307486       37.1745973448
  S         5.6753325447       25.2670173582       37.2251769069
  S         8.3143584250       19.6733171230       30.8878430259
  S         5.0783174867       22.0426613973       30.8434541227
  S         8.3891997513       22.0352506816       33.4356197343
  S         5.0128771071       19.5445264086       33.4120743216
  S         3.1216199451       13.2672351719       30.8800329847
  S        10.2989387394       15.6227415040       30.8827405515
  S         3.1975708942       15.4590398686       33.8569495659
  S        10.3535397469       13.3179739083       33.6209338302
  S         8.3003240283       17.0615892285       37.1123647564
  S         0.4869903038       18.9701918923       37.4861019062
  S         2.5189205407       21.4583894283       38.5676253924
  S         5.8428744244       13.1237362558       38.9133244495
  S         8.3663336651       18.0727545349       32.2020410480
  S         5.0269994891       23.6344431927       32.1632920711
  S         8.3905167982       23.5967066232       32.0751017424
  S         4.9612132723       17.8489953317       32.2293269444
  S         3.1499797528       24.4964099811       32.1625841613
  S        10.2434185014       17.2165090674       32.1994076777
  S         3.1259312260       16.9284756544       32.3927467964
  S        10.2449477064       24.5030598561       32.0354974524
  S         7.5991335568       16.2462676299       38.8787362287
  S         0.6128825556       20.6509338063       38.6831867917
  S        12.2063138277        9.0158937860       34.3701061117
  S        17.0181964578        0.5066514272       34.3036715258
  S        19.5793184315        5.8046638648       27.7239384207
  S        14.7599391326       10.2194223191       27.7146536258
  S        17.9613164752        9.4491869095       36.8668571944
  S        14.8718288461        5.7445639232       36.5858558476
  S        14.3511665966       12.2411495763       27.7156965391
  S        19.9793744993        3.7825290782       27.7221650524
  S        14.4554672025        3.7197091376       36.5807808987
  S        19.2381206155       10.9219498143       37.5565404998
  S        17.4150319233        2.5252006655       34.1262412735
  S        11.9581338681        6.9600461783       34.1977428800
  S        13.7131613846        9.3877725740       35.7484927331
  S        15.5415472578        0.2193698707       35.7264680002
  S        18.0110364105        6.1975105933       29.0196349314
  S        16.3298006648        9.8332491429       29.0094830605
  S        17.3005499006        9.8347617748       34.9925950477
  S        16.3943351815        6.1307123380       35.2422421031
  S        12.7568915540       12.6261080506       28.9810215587
  S        11.0791979255        3.4012665876       28.9979747411
  S        12.8856386369        3.3213580043       35.2920331485
  S        11.6724972651       12.5418816666       35.1708779790
  S        19.0911925790        2.9928400047       35.2530811688
  S        20.5858860418        6.8547288692       35.7865574409
  S        12.7931097784        9.9053671158       37.5409844310
  S        15.7637660451       12.4030672816       37.1081830525
  S        18.7722414960        6.8501304291       30.8281433625
  S        15.5686306863        9.2119992401       30.8272811981
  S        18.7093307555        9.1081934928       33.5295958981
  S        15.5823841571        6.7988153585       33.4582171905
  S        13.5671980381        0.4471828228       30.7980664618
  S        20.7690695822        2.7917415511       30.8425926213
  S        13.6342001820        2.7321048667       33.4540124112
  S        20.8318678077        0.3591751746       33.3872705125
  S        18.5076581690        3.7377382717       37.0933149346
  S        10.8528401016        5.8271527288       37.1921867084
  S        12.5767268478        8.2600583722       38.7938519729
  S        16.6115695600        1.4464032650       38.7091510649
  S        18.8535554213        5.2647386460       32.1557184642
  S        15.4588406990       10.8241284498       32.1196979410
  S        18.9154564529       10.6256596155       32.1556405423
  S        15.4931508807        5.2265045050       32.1153925071
  S        13.5459077425       11.6013774535       32.0942269347
  S        20.7307395784        4.4093851033       32.1337096353
  S        13.6272086205        4.3441261438       32.1544031828
  S        20.7862078134       11.5570666805       32.2641999647
  S        18.5221836217        2.2234168201       38.5047097928
  S        10.7026357552        7.4482491801       38.4820326682
  S        12.1869758606       21.8859163428       34.0579230760
  S        17.1340924634       13.4759417641       34.2265956575
  S        19.6040447991       18.6620707745       27.7337582291
  S        14.7337259715       23.0762743128       27.7206994295
  S        19.6449375780       23.0836441283       36.5385148527
  S        14.8600162362       18.7372396682       36.5064272540
  S        14.3397825862       25.0995163837       27.7047407432
  S        19.9908011014       16.6370604404       27.7392902272
  S        14.3856726254       16.7246750990       36.5260736862
  S        20.0945521017       25.1022169409       36.5263418385
  S        17.5871121404       15.4968654769       34.3388510287
  S        11.7872816173       19.8717091802       34.2790014539
  S        13.8559437329       22.3854390691       35.1808283727
  S        15.3319732381       13.1377309571       35.2367332425
  S        18.0475230630       19.0753039257       29.0353408788
  S        16.3033982937       22.6845916401       29.0125469219
  S        18.0617931605       22.7105563665       35.2602024440
  S        16.4093165748       19.0702030972       35.1770486162
  S        12.7814651806       25.5111394911       29.0065967869
  S        11.0734546448       16.2521233182       29.0692798313
  S        12.8064984435       16.3539408909       35.2405304840
  S        11.0860993975       25.5720778728       35.1296542721
  S        19.0063248464       15.7032981337       35.8292062583
  S        20.5958259944       19.4522847805       35.2548169698
  S        13.2611393030       23.1702660563       36.9999796531
  S        16.4104518499       25.4778928400       37.5482601734
  S        18.8352716152       19.6650179835       30.8537976740
  S        15.5356777517       22.1201354901       30.8478220753