     582
 i =       90, E =     -5927.9460035667
  S         9.1190950000        3.7928950000       24.0526252188
  S         4.2878150000       12.2244950000       24.0526252188
  S         1.6716450000        7.0093950000       30.1741252188
  S         6.5029550000        2.5749950000       30.1741252188
  S         1.6716450000        2.5749950000       21.6755252188
  S         6.5029550000        7.0093950000       21.6755252188
  S         6.9039650000        0.5763950000       30.1741252188
  S         1.2706450000        9.0079950000       30.1741252188
  S         6.9039650000        9.0079950000       21.6755252188
  S         1.2706450000        0.5763950000       21.6755252188
  S         3.8867850000       10.2258950000       24.0526252188
  S         9.5200950000        5.7914950000       24.0526252188
  S         7.5650250000        3.4442250000       22.7639252188
  S         5.8418950000       12.5731650000       22.7639252188
  S         3.2257650000        6.6607250000       28.8854152188
  S         4.9488550000        2.9236650000       28.8854152188
  S         3.2257650000        2.9236650000       22.9642152188
  S         4.9488550000        6.6607250000       22.9642152188
  S         8.4580450000        0.2277250000       28.8854152188
  S        10.1811650000        9.3566650000       28.8854152188
  S         8.4580450000        9.3566650000       22.9642152188
  S        10.1811650000        0.2277250000       22.9642152188
  S         2.3327050000        9.8772250000       22.7639252188
  S         0.6095950000        6.1401650000       22.7639252188
  S         8.3688950000        2.7951350000       20.9975052188
  S         5.0380050000        0.3562550000       20.9975052188
  S         2.4218550000        6.0116350000       27.1189952188
  S         5.7527450000        3.5727550000       27.1189952188
  S         2.4218550000        3.5727550000       24.7306452188
  S         5.7527450000        6.0116350000       24.7306452188
  S         7.6541750000       12.4446350000       27.1189952188
  S         0.5204350000       10.0057550000       27.1189952188
  S         7.6541750000       10.0057550000       24.7306452188
  S         0.5204350000       12.4446350000       24.7306452188
  S         3.1366050000        9.2281350000       20.9975052188
  S        10.2703150000        6.7892550000       20.9975052188
  S         8.3878550000        4.3717350000       19.6938652188
  S         5.0190650000       11.6456550000       19.6938652188
  S         2.4029250000        7.5882350000       25.8153752188
  S         5.7716750000        1.9961550000       25.8153752188
  S         2.4029250000        1.9961550000       26.0342652188
  S         5.7716750000        7.5882350000       26.0342652188
  S         7.6352050000        1.1552350000       25.8153752188
  S         0.5394050000        8.4291550000       25.8153752188
  S         7.6352050000        8.4291550000       26.0342652188
  S         0.5394050000        1.1552350000       26.0342652188
  S         3.1555450000       10.8047350000       19.6938652188
  S        10.2513850000        5.2126550000       19.6938652188
  S         9.1190950000       16.6588950000       24.0526252188
  S         4.2878150000       25.0904950000       24.0526252188
  S         1.6716450000       19.8753950000       30.1741252188
  S         6.5029550000       15.4409950000       30.1741252188
  S         1.6716450000       15.4409950000       21.6755252188
  S         6.5029550000       19.8753950000       21.6755252188
  S         6.9039650000       13.4423950000       30.1741252188
  S         1.2706450000       21.8739950000       30.1741252188
  S         6.9039650000       21.8739950000       21.6755252188
  S         1.2706450000       13.4423950000       21.6755252188
  S         3.8867850000       23.0918950000       24.0526252188
  S         9.5200950000       18.6574950000       24.0526252188
  S         7.5650250000       16.3102250000       22.7639252188
  S         5.8418950000       25.4391650000       22.7639252188
  S         3.2257650000       19.5267250000       28.8854152188
  S         4.9488550000       15.7896650000       28.8854152188
  S         3.2257650000       15.7896650000       22.9642152188
  S         4.9488550000       19.5267250000       22.9642152188
  S         8.4580450000       13.0937250000       28.8854152188
  S        10.1811650000       22.2226650000       28.8854152188
  S         8.4580450000       22.2226650000       22.9642152188
  S        10.1811650000       13.0937250000       22.9642152188
  S         2.3327050000       22.7432250000       22.7639252188
  S         0.6095950000       19.0061650000       22.7639252188
  S         8.3688950000       15.6611350000       20.9975052188
  S         5.0380050000       13.2222550000       20.9975052188
  S         2.4218550000       18.8776350000       27.1189952188
  S         5.7527450000       16.4387550000       27.1189952188
  S         2.4218550000       16.4387550000       24.7306452188
  S         5.7527450000       18.8776350000       24.7306452188
  S         7.6541750000       25.3106350000       27.1189952188
  S         0.5204350000       22.8717550000       27.1189952188
  S         7.6541750000       22.8717550000       24.7306452188
  S         0.5204350000       25.3106350000       24.7306452188
  S         3.1366050000       22.0941350000       20.9975052188
  S        10.2703150000       19.6552550000       20.9975052188
  S         8.3878550000       17.2377350000       19.6938652188
  S         5.0190650000       24.5116550000       19.6938652188
  S         2.4029250000       20.4542350000       25.8153752188
  S         5.7716750000       14.8621550000       25.8153752188
  S         2.4029250000       14.8621550000       26.0342652188
  S         5.7716750000       20.4542350000       26.0342652188
  S         7.6352050000       14.0212350000       25.8153752188
  S         0.5394050000       21.2951550000       25.8153752188
  S         7.6352050000       21.2951550000       26.0342652188
  S         0.5394050000       14.0212350000       26.0342652188
  S         3.1555450000       23.6707350000       19.6938652188
  S        10.2513850000       18.0786550000       19.6938652188
  S        19.5836850000        3.7928950000       24.0526252188
  S        14.7524050000       12.2244950000       24.0526252188
  S        12.1362650000        7.0093950000       30.1741252188
  S        16.9675550000        2.5749950000       30.1741252188
  S        12.1362650000        2.5749950000       21.6755252188
  S        16.9675550000        7.0093950000       21.6755252188
  S        17.3685550000        0.5763950000       30.1741252188
  S        11.7352450000        9.0079950000       30.1741252188
  S        17.3685550000        9.0079950000       21.6755252188
  S        11.7352450000        0.5763950000       21.6755252188
  S        14.3514050000       10.2258950000       24.0526252188
  S        19.9847250000        5.7914950000       24.0526252188
  S        18.0296050000        3.4442250000       22.7639252188
  S        16.3064950000       12.5731650000       22.7639252188
  S        13.6903550000        6.6607250000       28.8854152188
  S        15.4134750000        2.9236650000       28.8854152188
  S        13.6903550000        2.9236650000       22.9642152188
  S        15.4134750000        6.6607250000       22.9642152188
  S        18.9226550000        0.2277250000       28.8854152188
  S        20.6457550000        9.3566650000       28.8854152188
  S        18.9226550000        9.3566650000       22.9642152188
  S        20.6457550000        0.2277250000       22.9642152188
  S        12.7972950000        9.8772250000       22.7639252188
  S        11.0742150000        6.1401650000       22.7639252188
  S        18.8335050000        2.7951350000       20.9975052188
  S        15.5026250000        0.3562550000       20.9975052188
  S        12.8864450000        6.0116350000       27.1189952188
  S        16.2173450000        3.5727550000       27.1189952188
  S        12.8864450000        3.5727550000       24.7306452188
  S        16.2173450000        6.0116350000       24.7306452188
  S        18.1187550000       12.4446350000       27.1189952188
  S        10.9850650000       10.0057550000       27.1189952188
  S        18.1187550000       10.0057550000       24.7306452188
  S        10.9850650000       12.4446350000       24.7306452188
  S        13.6012050000        9.2281350000       20.9975052188
  S        20.7349050000        6.7892550000       20.9975052188
  S        18.8524350000        4.3717350000       19.6938652188
  S        15.4836650000       11.6456550000       19.6938652188
  S        12.8675250000        7.5882350000       25.8153752188
  S        16.2363050000        1.9961550000       25.8153752188
  S        12.8675250000        1.9961550000       26.0342652188
  S        16.2363050000        7.5882350000       26.0342652188
  S        18.0998250000        1.1552350000       25.8153752188
  S        11.0039850000        8.4291550000       25.8153752188
  S        18.0998250000        8.4291550000       26.0342652188
  S        11.0039850000        1.1552350000       26.0342652188
  S        13.6201250000       10.8047350000       19.6938652188
  S        20.7159750000        5.2126550000       19.6938652188
  S        19.5836850000       16.6588950000       24.0526252188
  S        14.7524050000       25.0904950000       24.0526252188
  S        12.1362650000       19.8753950000       30.1741252188
  S        16.9675550000       15.4409950000       30.1741252188
  S        12.1362650000       15.4409950000       21.6755252188
  S        16.9675550000       19.8753950000       21.6755252188
  S        17.3685550000       13.4423950000       30.1741252188
  S        11.7352450000       21.8739950000       30.1741252188
  S        17.3685550000       21.8739950000       21.6755252188
  S        11.7352450000       13.4423950000       21.6755252188
  S        14.3514050000       23.0918950000       24.0526252188
  S        19.9847250000       18.6574950000       24.0526252188
  S        18.0296050000       16.3102250000       22.7639252188
  S        16.3064950000       25.4391650000       22.7639252188
  S        13.6903550000       19.5267250000       28.8854152188
  S        15.4134750000       15.7896650000       28.8854152188
  S        13.6903550000       15.7896650000       22.9642152188
  S        15.4134750000       19.5267250000       22.9642152188
  S        18.9226550000       13.0937250000       28.8854152188
  S        20.6457550000       22.2226650000       28.8854152188
  S        18.9226550000       22.2226650000       22.9642152188
  S        20.6457550000       13.0937250000       22.9642152188
  S        12.7972950000       22.7432250000       22.7639252188
  S        11.0742150000       19.0061650000       22.7639252188
  S        18.8335050000       15.6611350000       20.9975052188
  S        15.5026250000       13.2222550000       20.9975052188
  S        12.8864450000       18.8776350000       27.1189952188
  S        16.2173450000       16.4387550000       27.1189952188
  S        12.8864450000       16.4387550000       24.7306452188
  S        16.2173450000       18.8776350000       24.7306452188
  S        18.1187550000       25.3106350000       27.1189952188
  S        10.9850650000       22.8717550000       27.1189952188
  S        18.1187550000       22.8717550000       24.7306452188
  S        10.9850650000       25.3106350000       24.7306452188
  S        13.6012050000       22.0941350000       20.9975052188
  S        20.7349050000       19.6552550000       20.9975052188
  S        18.8524350000       17.2377350000       19.6938652188
  S        15.4836650000       24.5116550000       19.6938652188
  S        12.8675250000       20.4542350000       25.8153752188
  S        16.2363050000       14.8621550000       25.8153752188
  S        12.8675250000       14.8621550000       26.0342652188
  S        16.2363050000       20.4542350000       26.0342652188
  S        18.0998250000       14.0212350000       25.8153752188
  S        11.0039850000       21.2951550000       25.8153752188
  S        18.0998250000       21.2951550000       26.0342652188
  S        11.0039850000       14.0212350000       26.0342652188
  S        13.6201250000       23.6707350000       19.6938652188
  S        20.7159750000       18.0786550000       19.6938652188
  S        30.0483050000        3.7928950000       24.0526252188
  S        25.2170050000       12.2244950000       24.0526252188
  S        22.6008550000        7.0093950000       30.1741252188
  S        27.4321350000        2.5749950000       30.1741252188
  S        22.6008550000        2.5749950000       21.6755252188
  S        27.4321350000        7.0093950000       21.6755252188
  S        27.8331750000        0.5763950000       30.1741252188
  S        22.1998550000        9.0079950000       30.1741252188
  S        27.8331750000        9.0079950000       21.6755252188
  S        22.1998550000        0.5763950000       21.6755252188
  S        24.8160050000       10.2258950000       24.0526252188
  S        30.4493050000        5.7914950000       24.0526252188
  S        28.4942050000        3.4442250000       22.7639252188
  S        26.7711050000       12.5731650000       22.7639252188
  S        24.1549450000        6.6607250000       28.8854152188
  S        25.8780550000        2.9236650000       28.8854152188
  S        24.1549450000        2.9236650000       22.9642152188
  S        25.8780550000        6.6607250000       22.9642152188
  S        29.3872450000        0.2277250000       28.8854152188
  S        31.1103750000        9.3566650000       28.8854152188
  S        29.3872450000        9.3566650000       22.9642152188
  S        31.1103750000        0.2277250000       22.9642152188
  S        23.2619250000        9.8772250000       22.7639252188
  S        21.5388050000        6.1401650000       22.7639252188
  S        29.2980950000        2.7951350000       20.9975052188
  S        25.9672050000        0.3562550000       20.9975052188
  S        23.3510750000        6.0116350000       27.1189952188
  S        26.6819650000        3.5727550000       27.1189952188
  S        23.3510750000        3.5727550000       24.7306452188
  S        26.6819650000        6.0116350000       24.7306452188
  S        28.5833550000       12.4446350000       27.1189952188
  S        21.4496450000       10.0057550000       27.1189952188
  S        28.5833550000       10.0057550000       24.7306452188
  S        21.4496450000       12.4446350000       24.7306452188
  S        24.0657950000        9.2281350000       20.9975052188
  S        31.1995250000        6.7892550000       20.9975052188
  S        29.3170350000        4.3717350000       19.6938652188
  S        25.9482750000       11.6456550000       19.6938652188
  S        23.3321150000        7.5882350000       25.8153752188
  S        26.7008850000        1.9961550000       25.8153752188
  S        23.3321150000        1.9961550000       26.0342652188
  S        26.7008850000        7.5882350000       26.0342652188
  S        28.5644150000        1.1552350000       25.8153752188
  S        21.4685850000        8.4291550000       25.8153752188
  S        28.5644150000        8.4291550000       26.0342652188
  S        21.4685850000        1.1552350000       26.0342652188
  S        24.0847550000       10.8047350000       19.6938652188
  S        31.1805650000        5.2126550000       19.6938652188
  S        30.0483050000       16.6588950000       24.0526252188
  S        25.2170050000       25.0904950000       24.0526252188
  S        22.6008550000       19.8753950000       30.1741252188
  S        27.4321350000       15.4409950000       30.1741252188
  S        22.6008550000       15.4409950000       21.6755252188
  S        27.4321350000       19.8753950000       21.6755252188
  S        27.8331750000       13.4423950000       30.1741252188
  S        22.1998550000       21.8739950000       30.1741252188
  S        27.8331750000       21.8739950000       21.6755252188
  S        22.1998550000       13.4423950000       21.6755252188
  S        24.8160050000       23.0918950000       24.0526252188
  S        30.4493050000       18.6574950000       24.0526252188
  S        28.4942050000       16.3102250000       22.7639252188
  S        26.7711050000       25.4391650000       22.7639252188
  S        24.1549450000       19.5267250000       28.8854152188
  S        25.8780550000       15.7896650000       28.8854152188
  S        24.1549450000       15.7896650000       22.9642152188
  S        25.8780550000       19.5267250000       22.9642152188
  S        29.3872450000       13.0937250000       28.8854152188
  S        31.1103750000       22.2226650000       28.8854152188
  S        29.3872450000       22.2226650000       22.9642152188
  S        31.1103750000       13.0937250000       22.9642152188
  S        23.2619250000       22.7432250000       22.7639252188
  S        21.5388050000       19.0061650000       22.7639252188
  S        29.2980950000       15.6611350000       20.9975052188
  S        25.9672050000       13.2222550000       20.9975052188
  S        23.3510750000       18.8776350000       27.1189952188
  S        26.6819650000       16.4387550000       27.1189952188
  S        23.3510750000       16.4387550000       24.7306452188
  S        26.6819650000       18.8776350000       24.7306452188
  S        28.5833550000       25.3106350000       27.1189952188
  S        21.4496450000       22.8717550000       27.1189952188
  S        28.5833550000       22.8717550000       24.7306452188
  S        21.4496450000       25.3106350000       24.7306452188
  S        24.0657950000       22.0941350000       20.9975052188
  S        31.1995250000       19.6552550000       20.9975052188
  S        29.3170350000       17.2377350000       19.6938652188
  S        25.9482750000       24.5116550000       19.6938652188
  S        23.3321150000       20.4542350000       25.8153752188
  S        26.7008850000       14.8621550000       25.8153752188
  S        23.3321150000       14.8621550000       26.0342652188
  S        26.7008850000       20.4542350000       26.0342652188
  S        28.5644150000       14.0212350000       25.8153752188
  S        21.4685850000       21.2951550000       25.8153752188
  S        28.5644150000       21.2951550000       26.0342652188
  S        21.4685850000       14.0212350000       26.0342652188
  S        24.0847550000       23.6707350000       19.6938652188
  S        31.1805650000       18.0786550000       19.6938652188
  S         1.6754635522        9.0701858901       34.4369870061
  S         6.5332550162        0.6371258905       34.2143991222
  S         9.1091097459        5.8307873608       27.8764115292
  S         4.2829523275       10.2431243482       27.8759719441
  S         9.3929083423       12.1890388906       37.7404109725
  S         4.2066694211        5.7729922103       36.6889356241
  S         3.8989133556       12.2686430635       27.9039768415
  S         9.5102810631        3.8090942187       27.8569430571
  S         3.8121057833        3.7437550795       36.6484013826
  S        10.9778127633       13.3416414439       37.0070754928
  S         6.8954419640        2.6644743364       34.3493448552
  S         1.2781498382        7.0524044905       34.2473314703
  S         3.1689598558        9.3472016360       35.8460075118
  S         4.9118459543        0.1554358278       35.4124482542
  S         7.5501601074        6.2191790705       29.1838710102
  S         5.8389133214        9.8154371542       29.1758131372
  S         7.8682967716        9.6475391504       35.6291850676
  S         5.7909175073        6.2086034704       35.4315939775
  S         2.3432808108       12.6710549133       29.2113884564
  S         0.6295597403        3.3526824922       29.1847493174
  S         2.2864545613        3.3603458505       35.3041533550
  S         0.5936113965       12.5803949058       35.3806374507
  S         8.4178582905        2.9956756654       35.7148322088
  S        10.0704842586        6.5621616477       35.3751998555
  S         2.3124727209        9.8267564730       37.6709718797
  S         5.5022263689       12.1950214152       37.2147914126
  S         8.3263063728        6.8266175905       31.0016322248
  S         5.0444588989        9.1499340848       30.9640334413
  S         8.4064904315        9.1774118651       33.6842852321
  S         5.0581579254        6.8601386378       33.6114456223
  S         3.1303612353        0.2825527615       31.0822157201
  S        10.3191880881        2.7682450613       30.9521261200
  S         3.1059785182        2.7882125152       33.4918271662
  S        10.2950951262        0.4572041109       33.4511989003
  S         7.6037341754        3.4913593398       37.5558279481
  S         0.2267896018        5.8251984835       37.2228622043
  S         2.1213573705        8.1255829505       38.8315955313
  S         5.5822834790        0.9928316056       38.6305425676
  S         8.3751512498        5.2063327364       32.2863991086
  S         4.9818516959       10.7004411878       32.3289937407
  S         8.2849457999       10.8350482345       32.5086995775
  S         5.0329493608        5.2889740134       32.2624773192
  S         3.1187298698       11.5933373591       32.3000496103
  S        10.2544474040        4.3490803597       32.2850421397
  S         3.1634882096        4.4124650935       32.2107495216
  S        10.1322973592       11.8433546100       32.3244182146
  S         7.4814108713        1.8124629358       38.7581853254
  S         0.2134576494        7.3368706321       38.6362798630
  S         1.7040832987       21.6280074120       34.5539037820
  S         6.3278113983       13.6147152022       34.2856963024
  S         9.0988073802       18.6934215397       27.9356282319
  S         4.3086054043       23.0657895980       27.9102707896
  S         9.1889345106       23.2055352082       36.6376908136
  S         5.8113354489       19.4418410161       37.3416165327
  S         3.9103055000       25.0882743176       27.9394612688
  S         9.5168122961       16.6748013627       27.8915161780
  S         4.6266315110       17.8869376529       38.1228102280
  S         9.5867200906       25.2315714815       36.6060859981
  S         6.6049942639       15.6021038227       34.8337987127
  S         1.2378671320       19.6051313480       34.7399064625
  S         3.2806762403       22.0533944872       35.8072313015
  S         4.7481137556       12.7836470937       35.3954850912
  S         7.5395261347       19.0519776154       29.2515563010
  S         5.8712549946       22.6457805848       29.2049227637
  S         7.6290097456       22.7927189726       35.3420570427
  S         6.6492698515       19.0132673023       35.5202161941
  S         2.3501829354       25.4642397773       29.2478146607
  S         0.6125545479       16.2367209105       29.1567973151
  S         2.4167190816       15.9931968868       35.9286582787
  S         0.6511105341       25.4149912474       35.4755014928
  S         8.5535939758       15.4872742919       35.8741831443
  S        10.3158873565       19.7019322907       35.8496885681
  S         2.5846363163       22.7647622749       37.6222159541
  S         5.5843485529       25.1907001640       37.2421520190
  S         8.3110122859       19.6032526420       31.0884338362
  S         5.0993120095       21.9543279240       30.9956501182
  S         8.4030840065       22.1166243838       33.5455051832
  S         5.3706202663       19.6947695231       33.9842369585
  S         3.1250580726       13.2353239431       31.0428857282
  S        10.3545381917       15.5827269978       30.9752594649
  S         2.9338012018       15.6649070523       33.9460872299
  S        10.2767709098       13.3831583622       33.6570411875
  S         8.8963795882       16.8333388486       37.3567524920
  S         0.4649658290       18.7622362687       37.8634344305
  S         2.5749090278       21.1763809957       38.9481638992
  S         5.5916253454       13.8899616348       38.4167750603
  S         8.3636195011       17.9514219856       32.3394414272
  S         5.0312159092       23.5050353430       32.3631192789
  S         8.4207189344       23.6730440985       32.1841486308
  S         5.0175791133       18.1268515227       32.6894266857
  S         3.1597125982       24.3775243676       32.3501768828
  S        10.2579522305       17.1392854244       32.3376270988
  S         3.0604688774       17.3853382275       32.8539753709
  S        10.2783680586       24.5730663695       32.1584866627
  S         8.5476839336       16.1593186432       39.2883283489
  S         0.6722105352       20.4023336419       39.1291863278
  S        12.0433967334        9.0790671905       34.4363899825
  S        16.9486907833        0.5363246700       34.4486312647
  S        19.5775906732        5.8004027116       27.8697488450
  S        14.7638349457       10.2339568717       27.8779045747
  S        19.5718395195       10.2200299876       36.6260211006
  S        14.7130353975        5.8831296189       36.7297983359
  S        14.3628371537       12.2564285647       27.8941545354
  S        19.9744938079        3.7775954353       27.8681907126
  S        14.3445650103        3.8494022405       36.7314288530
  S        19.9610578349       12.2482821112       36.6270763397
  S        17.3519407788        2.5524002787       34.2549584755
  S        11.7750537848        7.0257368552       34.3119553796
  S        13.5326084429        9.4707287999       35.8231132832
  S        15.4631922737        0.2721470087       35.8655507729
  S        18.0127981273        6.1959761073       29.1679108025
  S        16.3228894590        9.8325258223       29.1824516781
  S        18.0255827687        9.8133734123       35.3109791625
  S        16.2591910639        6.3090526482       35.4208982556
  S        12.7801027458       12.6410453849       29.1725623555
  S        11.0837348810        3.4071813108       29.1420102326
  S        12.8006103173        3.4221668460       35.4216846516
  S        11.5895674962       12.6394874456       35.2183267360
  S        19.0120169030        3.0334161776       35.3962420107
  S        20.6393021623        6.6454478739       35.7952209612
  S        12.6021615625       10.0304117204       37.5949394470
  S        15.9289283475       12.2755294774       37.1338714472
  S        18.7881659379        6.8306774539       30.9763246888
  S        15.5427750334        9.1593089544       30.9736462810
  S        18.8132298603        9.2013096173       33.4988079015
  S        15.4799333958        6.8899405013       33.5940979178
  S        13.5817380562        0.4606873741       30.9448070506
  S        20.7694190094        2.7759658514       30.9845346935
  S        13.5918413317        2.7970372573       33.6129866727
  S        20.8041259454        0.3844972130       33.5695235964
  S        18.4012864284        3.7891051667       37.2228966069
  S        10.5422641690        5.9995541917       37.3009742000
  S        12.3381443337        8.4163984746       38.8712929162
  S        16.5161253276        1.5019616425       38.8495112660
  S        18.8616465134        5.2455427086       32.3026137870
  S        15.4205569872       10.7193284469       32.3300461259
  S        18.8375507277       10.7977774378       32.1824454134
  S        15.4795673488        5.2806706321       32.2898856064
  S        13.5273465335       11.5439959881       32.2632749367
  S        20.7413436673        4.3903457154       32.2775202275
  S        13.6219589762        4.3815389642       32.2821588241
  S        20.7021274857       11.6843673288       32.1838113682
  S        18.4236930571        2.2876065221       38.6452170365
  S        10.4354670472        7.6640490142       38.5454577828
  S        12.2097378669       21.9171109797       34.1773638336
  S        17.0212482753       13.5507953335       34.1953564850
  S        19.5924624965       18.6775440151       27.8661510843
  S        14.7281311816       23.0765938778       27.8725262274
  S        19.5926923578       23.0942943581       36.6979132253
  S        14.8231222164       18.7533522514       36.6873114025
  S        14.3384760401       25.1006628219       27.8525777192
  S        19.9846219070       16.6539279335       27.8655662246
  S        14.3351724227       16.7430556655       36.7139962267
  S        20.0307832016       25.1155121175       36.6954476240
  S        17.4254839729       15.5626817079       34.4282480263
  S        11.7883398362       19.9095580417       34.4159623375
  S        13.8715058237       22.4061994251       35.3138622117
  S        15.3448890895       13.0669788090       35.3118972950
  S        18.0347666456       19.0836768850       29.1686977503
  S        16.3019096860       22.6845833250       29.1592565626
  S        18.0316712370       22.7162053289       35.3945376386
  S        16.3807072827       19.0798010663       35.3656903119
  S        12.7861606372       25.5194430221       29.1591206989
  S        11.0952230551       16.2738028619       29.1723996575
  S        12.7603676941       16.3905039029       35.4209731960
  S        11.1131220565       25.6175647311       35.2625476228
  S        18.9046317450       15.8089752875       35.8578318629
  S        20.5908693392       19.4536677488       35.3910872374
  S        13.2663290345       23.2241501787       37.1146196730
  S        16.3212585726       25.5311599614       37.6927356753
  S        18.8197568866       19.6837473672       30.9851444092
  S        15.5404921865       22.1275002712       30.9993736603