     582
 i =       41, E =     -5927.9462866661
  S         9.1004450000        3.8094700000       24.5120550000
  S         4.2691750000       12.2410600000       24.5120550000
  S         1.6530050000        7.0259600000       30.6335550000
  S         6.4843150000        2.5915600000       30.6335550000
  S         1.6530050000        2.5915600000       22.1349550000
  S         6.4843150000        7.0259600000       22.1349550000
  S         6.8853250000        0.5929600000       30.6335550000
  S         1.2520050000        9.0245600000       30.6335550000
  S         6.8853250000        9.0245600000       22.1349550000
  S         1.2520050000        0.5929600000       22.1349550000
  S         3.8681450000       10.2424600000       24.5120550000
  S         9.5014450000        5.8080700000       24.5120550000
  S         7.5463850000        3.4607900000       23.2233550000
  S         5.8232550000       12.5897300000       23.2233550000
  S         3.2071150000        6.6773000000       29.3448450000
  S         4.9302150000        2.9402400000       29.3448450000
  S         3.2071150000        2.9402400000       23.4236450000
  S         4.9302150000        6.6773000000       23.4236450000
  S         8.4394050000        0.2443000000       29.3448450000
  S        10.1625250000        9.3732300000       29.3448450000
  S         8.4394050000        9.3732300000       23.4236450000
  S        10.1625250000        0.2443000000       23.4236450000
  S         2.3140550000        9.8937900000       23.2233550000
  S         0.5909450000        6.1567300000       23.2233550000
  S         8.3502550000        2.8117100000       21.4569350000
  S         5.0193650000        0.3728200000       21.4569350000
  S         2.4032050000        6.0282100000       27.5784250000
  S         5.7340950000        3.5893200000       27.5784250000
  S         2.4032050000        3.5893200000       25.1900750000
  S         5.7340950000        6.0282100000       25.1900750000
  S         7.6355350000       12.4612000000       27.5784250000
  S         0.5017850000       10.0223300000       27.5784250000
  S         7.6355350000       10.0223300000       25.1900750000
  S         0.5017850000       12.4612000000       25.1900750000
  S         3.1179550000        9.2447000000       21.4569350000
  S        10.2516750000        6.8058200000       21.4569350000
  S         8.3692150000        4.3883100000       20.1532950000
  S         5.0004250000       11.6622200000       20.1532950000
  S         2.3842850000        7.6048100000       26.2748050000
  S         5.7530350000        2.0127200000       26.2748050000
  S         2.3842850000        2.0127200000       26.4936950000
  S         5.7530350000        7.6048100000       26.4936950000
  S         7.6165650000        1.1718100000       26.2748050000
  S         0.5207650000        8.4457200000       26.2748050000
  S         7.6165650000        8.4457200000       26.4936950000
  S         0.5207650000        1.1718100000       26.4936950000
  S         3.1369050000       10.8213100000       20.1532950000
  S        10.2327450000        5.2292200000       20.1532950000
  S         9.1004450000       16.6754700000       24.5120550000
  S         4.2691750000       25.1070700000       24.5120550000
  S         1.6530050000       19.8919700000       30.6335550000
  S         6.4843150000       15.4575600000       30.6335550000
  S         1.6530050000       15.4575600000       22.1349550000
  S         6.4843150000       19.8919700000       22.1349550000
  S         6.8853250000       13.4589600000       30.6335550000
  S         1.2520050000       21.8905700000       30.6335550000
  S         6.8853250000       21.8905700000       22.1349550000
  S         1.2520050000       13.4589600000       22.1349550000
  S         3.8681450000       23.1084700000       24.5120550000
  S         9.5014450000       18.6740700000       24.5120550000
  S         7.5463850000       16.3267900000       23.2233550000
  S         5.8232550000       25.4557300000       23.2233550000
  S         3.2071150000       19.5432900000       29.3448450000
  S         4.9302150000       15.8062300000       29.3448450000
  S         3.2071150000       15.8062300000       23.4236450000
  S         4.9302150000       19.5432900000       23.4236450000
  S         8.4394050000       13.1102900000       29.3448450000
  S        10.1625250000       22.2392300000       29.3448450000
  S         8.4394050000       22.2392300000       23.4236450000
  S        10.1625250000       13.1102900000       23.4236450000
  S         2.3140550000       22.7597900000       23.2233550000
  S         0.5909450000       19.0227300000       23.2233550000
  S         8.3502550000       15.6777000000       21.4569350000
  S         5.0193650000       13.2388300000       21.4569350000
  S         2.4032050000       18.8942100000       27.5784250000
  S         5.7340950000       16.4553300000       27.5784250000
  S         2.4032050000       16.4553300000       25.1900750000
  S         5.7340950000       18.8942100000       25.1900750000
  S         7.6355350000       25.3272100000       27.5784250000
  S         0.5017850000       22.8883300000       27.5784250000
  S         7.6355350000       22.8883300000       25.1900750000
  S         0.5017850000       25.3272100000       25.1900750000
  S         3.1179550000       22.1107100000       21.4569350000
  S        10.2516750000       19.6718300000       21.4569350000
  S         8.3692150000       17.2543100000       20.1532950000
  S         5.0004250000       24.5282300000       20.1532950000
  S         2.3842850000       20.4708100000       26.2748050000
  S         5.7530350000       14.8787200000       26.2748050000
  S         2.3842850000       14.8787200000       26.4936950000
  S         5.7530350000       20.4708100000       26.4936950000
  S         7.6165650000       14.0378100000       26.2748050000
  S         0.5207650000       21.3117300000       26.2748050000
  S         7.6165650000       21.3117300000       26.4936950000
  S         0.5207650000       14.0378100000       26.4936950000
  S         3.1369050000       23.6873100000       20.1532950000
  S        10.2327450000       18.0952300000       20.1532950000
  S        19.5650350000        3.8094700000       24.5120550000
  S        14.7337550000       12.2410600000       24.5120550000
  S        12.1176150000        7.0259600000       30.6335550000
  S        16.9489150000        2.5915600000       30.6335550000
  S        12.1176150000        2.5915600000       22.1349550000
  S        16.9489150000        7.0259600000       22.1349550000
  S        17.3499150000        0.5929600000       30.6335550000
  S        11.7166050000        9.0245600000       30.6335550000
  S        17.3499150000        9.0245600000       22.1349550000
  S        11.7166050000        0.5929600000       22.1349550000
  S        14.3327550000       10.2424600000       24.5120550000
  S        19.9660850000        5.8080700000       24.5120550000
  S        18.0109650000        3.4607900000       23.2233550000
  S        16.2878550000       12.5897300000       23.2233550000
  S        13.6717150000        6.6773000000       29.3448450000
  S        15.3948350000        2.9402400000       29.3448450000
  S        13.6717150000        2.9402400000       23.4236450000
  S        15.3948350000        6.6773000000       23.4236450000
  S        18.9040050000        0.2443000000       29.3448450000
  S        20.6271150000        9.3732300000       29.3448450000
  S        18.9040050000        9.3732300000       23.4236450000
  S        20.6271150000        0.2443000000       23.4236450000
  S        12.7786550000        9.8937900000       23.2233550000
  S        11.0555750000        6.1567300000       23.2233550000
  S        18.8148550000        2.8117100000       21.4569350000
  S        15.4839850000        0.3728200000       21.4569350000
  S        12.8678050000        6.0282100000       27.5784250000
  S        16.1987050000        3.5893200000       27.5784250000
  S        12.8678050000        3.5893200000       25.1900750000
  S        16.1987050000        6.0282100000       25.1900750000
  S        18.1001150000       12.4612000000       27.5784250000
  S        10.9664250000       10.0223300000       27.5784250000
  S        18.1001150000       10.0223300000       25.1900750000
  S        10.9664250000       12.4612000000       25.1900750000
  S        13.5825650000        9.2447000000       21.4569350000
  S        20.7162650000        6.8058200000       21.4569350000
  S        18.8337850000        4.3883100000       20.1532950000
  S        15.4650250000       11.6622200000       20.1532950000
  S        12.8488850000        7.6048100000       26.2748050000
  S        16.2176650000        2.0127200000       26.2748050000
  S        12.8488850000        2.0127200000       26.4936950000
  S        16.2176650000        7.6048100000       26.4936950000
  S        18.0811750000        1.1718100000       26.2748050000
  S        10.9853450000        8.4457200000       26.2748050000
  S        18.0811750000        8.4457200000       26.4936950000
  S        10.9853450000        1.1718100000       26.4936950000
  S        13.6014750000       10.8213100000       20.1532950000
  S        20.6973350000        5.2292200000       20.1532950000
  S        19.5650350000       16.6754700000       24.5120550000
  S        14.7337550000       25.1070700000       24.5120550000
  S        12.1176150000       19.8919700000       30.6335550000
  S        16.9489150000       15.4575600000       30.6335550000
  S        12.1176150000       15.4575600000       22.1349550000
  S        16.9489150000       19.8919700000       22.1349550000
  S        17.3499150000       13.4589600000       30.6335550000
  S        11.7166050000       21.8905700000       30.6335550000
  S        17.3499150000       21.8905700000       22.1349550000
  S        11.7166050000       13.4589600000       22.1349550000
  S        14.3327550000       23.1084700000       24.5120550000
  S        19.9660850000       18.6740700000       24.5120550000
  S        18.0109650000       16.3267900000       23.2233550000
  S        16.2878550000       25.4557300000       23.2233550000
  S        13.6717150000       19.5432900000       29.3448450000
  S        15.3948350000       15.8062300000       29.3448450000
  S        13.6717150000       15.8062300000       23.4236450000
  S        15.3948350000       19.5432900000       23.4236450000
  S        18.9040050000       13.1102900000       29.3448450000
  S        20.6271150000       22.2392300000       29.3448450000
  S        18.9040050000       22.2392300000       23.4236450000
  S        20.6271150000       13.1102900000       23.4236450000
  S        12.7786550000       22.7597900000       23.2233550000
  S        11.0555750000       19.0227300000       23.2233550000
  S        18.8148550000       15.6777000000       21.4569350000
  S        15.4839850000       13.2388300000       21.4569350000
  S        12.8678050000       18.8942100000       27.5784250000
  S        16.1987050000       16.4553300000       27.5784250000
  S        12.8678050000       16.4553300000       25.1900750000
  S        16.1987050000       18.8942100000       25.1900750000
  S        18.1001150000       25.3272100000       27.5784250000
  S        10.9664250000       22.8883300000       27.5784250000
  S        18.1001150000       22.8883300000       25.1900750000
  S        10.9664250000       25.3272100000       25.1900750000
  S        13.5825650000       22.1107100000       21.4569350000
  S        20.7162650000       19.6718300000       21.4569350000
  S        18.8337850000       17.2543100000       20.1532950000
  S        15.4650250000       24.5282300000       20.1532950000
  S        12.8488850000       20.4708100000       26.2748050000
  S        16.2176650000       14.8787200000       26.2748050000
  S        12.8488850000       14.8787200000       26.4936950000
  S        16.2176650000       20.4708100000       26.4936950000
  S        18.0811750000       14.0378100000       26.2748050000
  S        10.9853450000       21.3117300000       26.2748050000
  S        18.0811750000       21.3117300000       26.4936950000
  S        10.9853450000       14.0378100000       26.4936950000
  S        13.6014750000       23.6873100000       20.1532950000
  S        20.6973350000       18.0952300000       20.1532950000
  S        30.0296550000        3.8094700000       24.5120550000
  S        25.1983650000       12.2410600000       24.5120550000
  S        22.5822050000        7.0259600000       30.6335550000
  S        27.4134850000        2.5915600000       30.6335550000
  S        22.5822050000        2.5915600000       22.1349550000
  S        27.4134850000        7.0259600000       22.1349550000
  S        27.8145350000        0.5929600000       30.6335550000
  S        22.1812050000        9.0245600000       30.6335550000
  S        27.8145350000        9.0245600000       22.1349550000
  S        22.1812050000        0.5929600000       22.1349550000
  S        24.7973650000       10.2424600000       24.5120550000
  S        30.4306550000        5.8080700000       24.5120550000
  S        28.4755650000        3.4607900000       23.2233550000
  S        26.7524550000       12.5897300000       23.2233550000
  S        24.1363050000        6.6773000000       29.3448450000
  S        25.8594050000        2.9402400000       29.3448450000
  S        24.1363050000        2.9402400000       23.4236450000
  S        25.8594050000        6.6773000000       23.4236450000
  S        29.3686050000        0.2443000000       29.3448450000
  S        31.0917350000        9.3732300000       29.3448450000
  S        29.3686050000        9.3732300000       23.4236450000
  S        31.0917350000        0.2443000000       23.4236450000
  S        23.2432850000        9.8937900000       23.2233550000
  S        21.5201550000        6.1567300000       23.2233550000
  S        29.2794450000        2.8117100000       21.4569350000
  S        25.9485550000        0.3728200000       21.4569350000
  S        23.3324350000        6.0282100000       27.5784250000
  S        26.6633250000        3.5893200000       27.5784250000
  S        23.3324350000        3.5893200000       25.1900750000
  S        26.6633250000        6.0282100000       25.1900750000
  S        28.5647150000       12.4612000000       27.5784250000
  S        21.4310050000       10.0223300000       27.5784250000
  S        28.5647150000       10.0223300000       25.1900750000
  S        21.4310050000       12.4612000000       25.1900750000
  S        24.0471550000        9.2447000000       21.4569350000
  S        31.1808850000        6.8058200000       21.4569350000
  S        29.2983950000        4.3883100000       20.1532950000
  S        25.9296250000       11.6622200000       20.1532950000
  S        23.3134750000        7.6048100000       26.2748050000
  S        26.6822350000        2.0127200000       26.2748050000
  S        23.3134750000        2.0127200000       26.4936950000
  S        26.6822350000        7.6048100000       26.4936950000
  S        28.5457750000        1.1718100000       26.2748050000
  S        21.4499450000        8.4457200000       26.2748050000
  S        28.5457750000        8.4457200000       26.4936950000
  S        21.4499450000        1.1718100000       26.4936950000
  S        24.0661150000       10.8213100000       20.1532950000
  S        31.1619250000        5.2292200000       20.1532950000
  S        30.0296550000       16.6754700000       24.5120550000
  S        25.1983650000       25.1070700000       24.5120550000
  S        22.5822050000       19.8919700000       30.6335550000
  S        27.4134850000       15.4575600000       30.6335550000
  S        22.5822050000       15.4575600000       22.1349550000
  S        27.4134850000       19.8919700000       22.1349550000
  S        27.8145350000       13.4589600000       30.6335550000
  S        22.1812050000       21.8905700000       30.6335550000
  S        27.8145350000       21.8905700000       22.1349550000
  S        22.1812050000       13.4589600000       22.1349550000
  S        24.7973650000       23.1084700000       24.5120550000
  S        30.4306550000       18.6740700000       24.5120550000
  S        28.4755650000       16.3267900000       23.2233550000
  S        26.7524550000       25.4557300000       23.2233550000
  S        24.1363050000       19.5432900000       29.3448450000
  S        25.8594050000       15.8062300000       29.3448450000
  S        24.1363050000       15.8062300000       23.4236450000
  S        25.8594050000       19.5432900000       23.4236450000
  S        29.3686050000       13.1102900000       29.3448450000
  S        31.0917350000       22.2392300000       29.3448450000
  S        29.3686050000       22.2392300000       23.4236450000
  S        31.0917350000       13.1102900000       23.4236450000
  S        23.2432850000       22.7597900000       23.2233550000
  S        21.5201550000       19.0227300000       23.2233550000
  S        29.2794450000       15.6777000000       21.4569350000
  S        25.9485550000       13.2388300000       21.4569350000
  S        23.3324350000       18.8942100000       27.5784250000
  S        26.6633250000       16.4553300000       27.5784250000
  S        23.3324350000       16.4553300000       25.1900750000
  S        26.6633250000       18.8942100000       25.1900750000
  S        28.5647150000       25.3272100000       27.5784250000
  S        21.4310050000       22.8883300000       27.5784250000
  S        28.5647150000       22.8883300000       25.1900750000
  S        21.4310050000       25.3272100000       25.1900750000
  S        24.0471550000       22.1107100000       21.4569350000
  S        31.1808850000       19.6718300000       21.4569350000
  S        29.2983950000       17.2543100000       20.1532950000
  S        25.9296250000       24.5282300000       20.1532950000
  S        23.3134750000       20.4708100000       26.2748050000
  S        26.6822350000       14.8787200000       26.2748050000
  S        23.3134750000       14.8787200000       26.4936950000
  S        26.6822350000       20.4708100000       26.4936950000
  S        28.5457750000       14.0378100000       26.2748050000
  S        21.4499450000       21.3117300000       26.2748050000
  S        28.5457750000       21.3117300000       26.4936950000
  S        21.4499450000       14.0378100000       26.4936950000
  S        24.0661150000       23.6873100000       20.1532950000
  S        31.1619250000       18.0952300000       20.1532950000
  S         1.6711289354        9.0892482653       34.8869136317
  S         6.5081988486        0.6443109924       34.6970360820
  S         9.0905334078        5.8558856882       28.3533977899
  S         4.2650888831       10.2417350573       28.3617472378
  S         9.5762581759       12.0829923762       38.3647747537
  S         4.1933612244        5.7984278879       37.1297559957
  S         3.8728007617       12.2657913550       28.3649095812
  S         9.4835301186        3.8324900015       28.3253476869
  S         3.7951351445        3.7701483795       37.1006893506
  S        11.1101262062       13.2670470874       37.5596438205
  S         6.8755996012        2.6719196104       34.8096418722
  S         1.2659595479        7.0731762005       34.6961345934
  S         3.1681532983        9.3570557931       36.2945669510
  S         4.8830636487        0.1816117263       35.8975930414
  S         7.5383087809        6.2491661010       29.6673319887
  S         5.8194646723        9.8337874201       29.6696220264
  S         7.9420483158        9.6058398678       36.2576586649
  S         5.7749015567        6.2244190798       35.8651663033
  S         2.3140527159       12.6724203662       29.6677980797
  S         0.6099574470        3.3764551542       29.6385418739
  S         2.2673350645        3.3824261352       35.7601012380
  S         0.5633107480       12.5802713144       35.8651975876
  S         8.3975186159        3.0147969071       36.1730571550
  S        10.1081516531        6.5451840351       35.8419647516
  S         2.3146535804        9.8342181144       38.1216412722
  S         5.3080115863       12.3706319878       37.9139967292
  S         8.3259238219        6.8445770645       31.4850695226
  S         5.0290434804        9.2069527757       31.4735496634
  S         8.3417846625        9.1981871464       34.2629246551
  S         5.0374489526        6.8641116832       34.0429547034
  S         3.0998124611        0.3310785500       31.4995292722
  S        10.2889273625        2.7724082053       31.4139731260
  S         3.0838295275        2.7957878242       33.9509562315
  S        10.2683511562        0.4444805394       33.9196577758
  S         7.5835376009        3.5292875534       38.0088797628
  S         0.2076310923        5.8444514680       37.6695814905
  S         2.1150774269        8.1310074436       39.2810479464
  S         5.5559698960        1.0482601210       39.1079783154
  S         8.3620376627        5.2194981294       32.7639747774
  S         4.9800159126       10.7918883909       32.8020850993
  S         8.2383814426       10.8839672454       33.1274318966
  S         5.0101113792        5.2860911232       32.7022358043
  S         3.1140854598       11.6745503025       32.7864657533
  S        10.2336461471        4.3448806892       32.7569904656
  S         3.1400274964        4.4104711994       32.6582264825
  S        10.1088738653       11.8344950519       32.8923704274
  S         7.4582993208        1.8618478067       39.2263926147
  S         0.2031860990        7.3540596315       39.0853704933
  S         1.7373952231       21.7183456460       34.8578130850
  S         6.4431695946       13.4836299901       34.9487831977
  S         9.1072069620       18.6983603171       28.3629284574
  S         4.2834574548       23.0859215472       28.3497442437
  S         9.1658008607       23.2306596224       37.1407959881
  S         5.8783234242       19.4239837458       37.5524226468
  S         3.8820312938       25.1078776672       28.3666192706
  S         9.5074561029       16.6760073408       28.3324645790
  S         4.6301084834       17.8486383176       38.1665329457
  S         9.5687786648       25.2553885159       37.0880685424
  S         6.9044195747       15.4949859310       35.2305890802
  S         1.2660833267       19.6902839872       34.9342698271
  S         3.3273637062       22.0697264058       36.1160749503
  S         4.7095170891       13.0523903626       36.0661311433
  S         7.5553798019       19.0797297626       29.6804353582
  S         5.8536766539       22.6788821451       29.6390453246
  S         7.5984063499       22.8129015374       35.8571850957
  S         6.6567247407       19.0537345550       35.7233955651
  S         2.3209719861       25.4895100830       29.6722695460
  S         0.5867172430       16.2456794550       29.6104920776
  S         2.2994952691       16.0471163269       36.1350558628
  S         0.6624117369       25.4267468247       35.8847982178
  S         8.7180463067       15.5806802608       36.4530369716
  S        10.2838845696       19.6997867370       36.4029962448
  S         2.6527926348       22.7123422866       37.9651568069
  S         5.5506151429       25.2325472134       37.7352830632
  S         8.3431718560       19.6316317301       31.5103312291
  S         5.0960026827       22.0080994138       31.4429264004
  S         8.3594265702       22.1072050004       34.0658114125
  S         5.2771023013       19.6643121427       34.2210695202
  S         3.0923567692       13.2824566281       31.4847670543
  S        10.3379616638       15.5810232314       31.4140326178
  S         2.9820855808       15.5988938690       34.2275449199
  S        10.3341665466       13.3843712683       34.2033726499
  S         8.6894303379       16.9357840106       37.9629370090
  S         0.5445089208       18.7119056403       38.0315062687
  S         2.6409696579       21.0753214676       39.2270624009
  S         5.9550712111       13.9973743057       39.0237346850
  S         8.3804663153       17.9816250659       32.7626839550
  S         5.0258943791       23.5801538182       32.7863755510
  S         8.3897704620       23.6467826525       32.6842324437
  S         5.0244015609       18.0694226500       32.9314837613
  S         3.1476787937       24.4367705450       32.7798242212
  S        10.2623480988       17.1423617895       32.7712054973
  S         3.0988693868       17.2621235979       33.0382655041
  S        10.2490457524       24.5428474961       32.6485981578
  S         8.3784085763       16.1962096367       39.8749964009
  S         0.7369338922       20.2957991262       39.3672190409
  S        12.0771342112        9.0711813491       34.9122170148
  S        16.9343256030        0.5394852513       34.9017947515
  S        19.5590130333        5.8143671182       28.3275654232
  S        14.7504974454       10.2464054990       28.3366958500
  S        19.5575944168       10.2333589842       37.0916417581
  S        14.7336173952        5.8606561296       37.1628404844
  S        14.3484173337       12.2685364575       28.3512651290
  S        19.9562257944        3.7916254329       28.3300337750
  S        14.3560974397        3.8289394738       37.1645162011
  S        19.9466281319       12.2617118346       37.0908757341
  S        17.3358948908        2.5558567696       34.7072771709
  S        11.7840412301        7.0223215727       34.7444786052
  S        13.6087038584        9.4209383143       36.2670518801
  S        15.4490889492        0.2717981138       36.3183999103
  S        17.9956293239        6.2122952633       29.6267286629
  S        16.3070280562        9.8460856115       29.6446441129
  S        18.0092366875        9.8253762307       35.7793085178
  S        16.2756287486        6.2815740880       35.8471904661
  S        12.7637657462       12.6523590646       29.6274837643
  S        11.0563813383        3.4192494795       29.6076364311
  S        12.8024247651        3.4105341413       35.8634425515
  S        11.6515796627       12.6002777516       35.7373848099
  S        18.9970098226        3.0380149745       35.8470680048
  S        20.6280182364        6.6576127848       36.2725443792
  S        12.7253145239        9.9441974857       38.0724025071
  S        15.9142398761       12.2869743808       37.5822751018
  S        18.7733048511        6.8528910709       31.4319032550
  S        15.5230321505        9.1716971076       31.4337442385
  S        18.7933164202        9.2134625522       33.9656093500
  S        15.4891979500        6.8729132569       34.0269103425
  S        13.5575645555        0.4654597044       31.4092368153
  S        20.7525110144        2.7981399537       31.4487057385
  S        13.5780137540        2.7899230732       34.0471814446
  S        20.7805388516        0.4008955677       34.0257875705
  S        18.3889668137        3.7939540995       37.6746260095
  S        10.6296353651        5.9332150435       37.7418928267
  S        12.4690902481        8.3036766482       39.3189768345
  S        16.5014810223        1.5074138536       39.3010811971
  S        18.8485320510        5.2725190554       32.7641015870
  S        15.3977914871       10.7305013606       32.7910403265
  S        18.8166807539       10.8106669742       32.6497403045
  S        15.4676232838        5.2674994041       32.7185704026
  S        13.5052311142       11.5574095237       32.7194272933
  S        20.7274001246        4.4162183575       32.7372642064
  S        13.6043874945        4.3801887371       32.7226676544
  S        20.6825106958       11.6946300578       32.6478819097
  S        18.4094942671        2.2923808728       39.0970850919
  S        10.5570542789        7.5704079377       39.0195071087
  S        12.1467597095       21.8999127665       34.6691088150
  S        17.0233313901       13.5729780481       34.6541215903
  S        19.5739509089       18.6938074722       28.3250428457
  S        14.7119326329       23.0901714564       28.3332957380
  S        19.5622973830       23.1029109556       37.1453496251
  S        14.7906891214       18.7518232307       37.1654811551
  S        14.3215879672       25.1141563926       28.3158749176
  S        19.9666682849       16.6702580609       28.3225863352
  S        14.3139479124       16.7386766817       37.1743022459
  S        20.0012071162       25.1239115347       37.1481147944
  S        17.4223165569       15.5846965480       34.8974754117
  S        11.7287879070       19.8949209038       34.9375334352
  S        13.8253492871       22.4058585911       35.7735972269
  S        15.3412321656       13.0839866255       35.7589117895
  S        18.0148520629       19.0977796005       29.6264041201
  S        16.2822559786       22.6963288274       29.6236984683
  S        18.0044232881       22.7276126575       35.8372789396
  S        16.3532056061       19.0952086852       35.8540658114
  S        12.7662020309       25.5300582859       29.6198707445
  S        11.0853927405       16.2637737894       29.6113782202
  S        12.7463006971       16.3874105535       35.8719935905
  S        11.0910609154       25.6271423663       35.7358847585
  S        18.8922420036       15.8268915304       36.3368899862
  S        20.5594892278       19.4692657948       35.8417891630
  S        13.2481708617       23.2390241491       37.5768075426
  S        16.3071960432       25.5349030078       38.1468417152
  S        18.7974785312       19.6941940724       31.4450581549
  S        15.5165627745       22.1341216866       31.4607964764