     582
 i =      173, E =     -5927.9380037557
  S         9.1190950000        3.7928950000       24.5324426779
  S         4.2878150000       12.2244950000       24.5324426779
  S         1.6716450000        7.0093950000       30.6539426779
  S         6.5029550000        2.5749950000       30.6539426779
  S         1.6716450000        2.5749950000       22.1553426779
  S         6.5029550000        7.0093950000       22.1553426779
  S         6.9039650000        0.5763950000       30.6539426779
  S         1.2706450000        9.0079950000       30.6539426779
  S         6.9039650000        9.0079950000       22.1553426779
  S         1.2706450000        0.5763950000       22.1553426779
  S         3.8867850000       10.2258950000       24.5324426779
  S         9.5200950000        5.7914950000       24.5324426779
  S         7.5650250000        3.4442250000       23.2437426779
  S         5.8418950000       12.5731650000       23.2437426779
  S         3.2257650000        6.6607250000       29.3652326779
  S         4.9488550000        2.9236650000       29.3652326779
  S         3.2257650000        2.9236650000       23.4440326779
  S         4.9488550000        6.6607250000       23.4440326779
  S         8.4580450000        0.2277250000       29.3652326779
  S        10.1811650000        9.3566650000       29.3652326779
  S         8.4580450000        9.3566650000       23.4440326779
  S        10.1811650000        0.2277250000       23.4440326779
  S         2.3327050000        9.8772250000       23.2437426779
  S         0.6095950000        6.1401650000       23.2437426779
  S         8.3688950000        2.7951350000       21.4773226779
  S         5.0380050000        0.3562550000       21.4773226779
  S         2.4218550000        6.0116350000       27.5988126779
  S         5.7527450000        3.5727550000       27.5988126779
  S         2.4218550000        3.5727550000       25.2104626779
  S         5.7527450000        6.0116350000       25.2104626779
  S         7.6541750000       12.4446350000       27.5988126779
  S         0.5204350000       10.0057550000       27.5988126779
  S         7.6541750000       10.0057550000       25.2104626779
  S         0.5204350000       12.4446350000       25.2104626779
  S         3.1366050000        9.2281350000       21.4773226779
  S        10.2703150000        6.7892550000       21.4773226779
  S         8.3878550000        4.3717350000       20.1736826779
  S         5.0190650000       11.6456550000       20.1736826779
  S         2.4029250000        7.5882350000       26.2951926779
  S         5.7716750000        1.9961550000       26.2951926779
  S         2.4029250000        1.9961550000       26.5140826779
  S         5.7716750000        7.5882350000       26.5140826779
  S         7.6352050000        1.1552350000       26.2951926779
  S         0.5394050000        8.4291550000       26.2951926779
  S         7.6352050000        8.4291550000       26.5140826779
  S         0.5394050000        1.1552350000       26.5140826779
  S         3.1555450000       10.8047350000       20.1736826779
  S        10.2513850000        5.2126550000       20.1736826779
  S         9.1190950000       16.6588950000       24.5324426779
  S         4.2878150000       25.0904950000       24.5324426779
  S         1.6716450000       19.8753950000       30.6539426779
  S         6.5029550000       15.4409950000       30.6539426779
  S         1.6716450000       15.4409950000       22.1553426779
  S         6.5029550000       19.8753950000       22.1553426779
  S         6.9039650000       13.4423950000       30.6539426779
  S         1.2706450000       21.8739950000       30.6539426779
  S         6.9039650000       21.8739950000       22.1553426779
  S         1.2706450000       13.4423950000       22.1553426779
  S         3.8867850000       23.0918950000       24.5324426779
  S         9.5200950000       18.6574950000       24.5324426779
  S         7.5650250000       16.3102250000       23.2437426779
  S         5.8418950000       25.4391650000       23.2437426779
  S         3.2257650000       19.5267250000       29.3652326779
  S         4.9488550000       15.7896650000       29.3652326779
  S         3.2257650000       15.7896650000       23.4440326779
  S         4.9488550000       19.5267250000       23.4440326779
  S         8.4580450000       13.0937250000       29.3652326779
  S        10.1811650000       22.2226650000       29.3652326779
  S         8.4580450000       22.2226650000       23.4440326779
  S        10.1811650000       13.0937250000       23.4440326779
  S         2.3327050000       22.7432250000       23.2437426779
  S         0.6095950000       19.0061650000       23.2437426779
  S         8.3688950000       15.6611350000       21.4773226779
  S         5.0380050000       13.2222550000       21.4773226779
  S         2.4218550000       18.8776350000       27.5988126779
  S         5.7527450000       16.4387550000       27.5988126779
  S         2.4218550000       16.4387550000       25.2104626779
  S         5.7527450000       18.8776350000       25.2104626779
  S         7.6541750000       25.3106350000       27.5988126779
  S         0.5204350000       22.8717550000       27.5988126779
  S         7.6541750000       22.8717550000       25.2104626779
  S         0.5204350000       25.3106350000       25.2104626779
  S         3.1366050000       22.0941350000       21.4773226779
  S        10.2703150000       19.6552550000       21.4773226779
  S         8.3878550000       17.2377350000       20.1736826779
  S         5.0190650000       24.5116550000       20.1736826779
  S         2.4029250000       20.4542350000       26.2951926779
  S         5.7716750000       14.8621550000       26.2951926779
  S         2.4029250000       14.8621550000       26.5140826779
  S         5.7716750000       20.4542350000       26.5140826779
  S         7.6352050000       14.0212350000       26.2951926779
  S         0.5394050000       21.2951550000       26.2951926779
  S         7.6352050000       21.2951550000       26.5140826779
  S         0.5394050000       14.0212350000       26.5140826779
  S         3.1555450000       23.6707350000       20.1736826779
  S        10.2513850000       18.0786550000       20.1736826779
  S        19.5836850000        3.7928950000       24.5324426779
  S        14.7524050000       12.2244950000       24.5324426779
  S        12.1362650000        7.0093950000       30.6539426779
  S        16.9675550000        2.5749950000       30.6539426779
  S        12.1362650000        2.5749950000       22.1553426779
  S        16.9675550000        7.0093950000       22.1553426779
  S        17.3685550000        0.5763950000       30.6539426779
  S        11.7352450000        9.0079950000       30.6539426779
  S        17.3685550000        9.0079950000       22.1553426779
  S        11.7352450000        0.5763950000       22.1553426779
  S        14.3514050000       10.2258950000       24.5324426779
  S        19.9847250000        5.7914950000       24.5324426779
  S        18.0296050000        3.4442250000       23.2437426779
  S        16.3064950000       12.5731650000       23.2437426779
  S        13.6903550000        6.6607250000       29.3652326779
  S        15.4134750000        2.9236650000       29.3652326779
  S        13.6903550000        2.9236650000       23.4440326779
  S        15.4134750000        6.6607250000       23.4440326779
  S        18.9226550000        0.2277250000       29.3652326779
  S        20.6457550000        9.3566650000       29.3652326779
  S        18.9226550000        9.3566650000       23.4440326779
  S        20.6457550000        0.2277250000       23.4440326779
  S        12.7972950000        9.8772250000       23.2437426779
  S        11.0742150000        6.1401650000       23.2437426779
  S        18.8335050000        2.7951350000       21.4773226779
  S        15.5026250000        0.3562550000       21.4773226779
  S        12.8864450000        6.0116350000       27.5988126779
  S        16.2173450000        3.5727550000       27.5988126779
  S        12.8864450000        3.5727550000       25.2104626779
  S        16.2173450000        6.0116350000       25.2104626779
  S        18.1187550000       12.4446350000       27.5988126779
  S        10.9850650000       10.0057550000       27.5988126779
  S        18.1187550000       10.0057550000       25.2104626779
  S        10.9850650000       12.4446350000       25.2104626779
  S        13.6012050000        9.2281350000       21.4773226779
  S        20.7349050000        6.7892550000       21.4773226779
  S        18.8524350000        4.3717350000       20.1736826779
  S        15.4836650000       11.6456550000       20.1736826779
  S        12.8675250000        7.5882350000       26.2951926779
  S        16.2363050000        1.9961550000       26.2951926779
  S        12.8675250000        1.9961550000       26.5140826779
  S        16.2363050000        7.5882350000       26.5140826779
  S        18.0998250000        1.1552350000       26.2951926779
  S        11.0039850000        8.4291550000       26.2951926779
  S        18.0998250000        8.4291550000       26.5140826779
  S        11.0039850000        1.1552350000       26.5140826779
  S        13.6201250000       10.8047350000       20.1736826779
  S        20.7159750000        5.2126550000       20.1736826779
  S        19.5836850000       16.6588950000       24.5324426779
  S        14.7524050000       25.0904950000       24.5324426779
  S        12.1362650000       19.8753950000       30.6539426779
  S        16.9675550000       15.4409950000       30.6539426779
  S        12.1362650000       15.4409950000       22.1553426779
  S        16.9675550000       19.8753950000       22.1553426779
  S        17.3685550000       13.4423950000       30.6539426779
  S        11.7352450000       21.8739950000       30.6539426779
  S        17.3685550000       21.8739950000       22.1553426779
  S        11.7352450000       13.4423950000       22.1553426779
  S        14.3514050000       23.0918950000       24.5324426779
  S        19.9847250000       18.6574950000       24.5324426779
  S        18.0296050000       16.3102250000       23.2437426779
  S        16.3064950000       25.4391650000       23.2437426779
  S        13.6903550000       19.5267250000       29.3652326779
  S        15.4134750000       15.7896650000       29.3652326779
  S        13.6903550000       15.7896650000       23.4440326779
  S        15.4134750000       19.5267250000       23.4440326779
  S        18.9226550000       13.0937250000       29.3652326779
  S        20.6457550000       22.2226650000       29.3652326779
  S        18.9226550000       22.2226650000       23.4440326779
  S        20.6457550000       13.0937250000       23.4440326779
  S        12.7972950000       22.7432250000       23.2437426779
  S        11.0742150000       19.0061650000       23.2437426779
  S        18.8335050000       15.6611350000       21.4773226779
  S        15.5026250000       13.2222550000       21.4773226779
  S        12.8864450000       18.8776350000       27.5988126779
  S        16.2173450000       16.4387550000       27.5988126779
  S        12.8864450000       16.4387550000       25.2104626779
  S        16.2173450000       18.8776350000       25.2104626779
  S        18.1187550000       25.3106350000       27.5988126779
  S        10.9850650000       22.8717550000       27.5988126779
  S        18.1187550000       22.8717550000       25.2104626779
  S        10.9850650000       25.3106350000       25.2104626779
  S        13.6012050000       22.0941350000       21.4773226779
  S        20.7349050000       19.6552550000       21.4773226779
  S        18.8524350000       17.2377350000       20.1736826779
  S        15.4836650000       24.5116550000       20.1736826779
  S        12.8675250000       20.4542350000       26.2951926779
  S        16.2363050000       14.8621550000       26.2951926779
  S        12.8675250000       14.8621550000       26.5140826779
  S        16.2363050000       20.4542350000       26.5140826779
  S        18.0998250000       14.0212350000       26.2951926779
  S        11.0039850000       21.2951550000       26.2951926779
  S        18.0998250000       21.2951550000       26.5140826779
  S        11.0039850000       14.0212350000       26.5140826779
  S        13.6201250000       23.6707350000       20.1736826779
  S        20.7159750000       18.0786550000       20.1736826779
  S        30.0483050000        3.7928950000       24.5324426779
  S        25.2170050000       12.2244950000       24.5324426779
  S        22.6008550000        7.0093950000       30.6539426779
  S        27.4321350000        2.5749950000       30.6539426779
  S        22.6008550000        2.5749950000       22.1553426779
  S        27.4321350000        7.0093950000       22.1553426779
  S        27.8331750000        0.5763950000       30.6539426779
  S        22.1998550000        9.0079950000       30.6539426779
  S        27.8331750000        9.0079950000       22.1553426779
  S        22.1998550000        0.5763950000       22.1553426779
  S        24.8160050000       10.2258950000       24.5324426779
  S        30.4493050000        5.7914950000       24.5324426779
  S        28.4942050000        3.4442250000       23.2437426779
  S        26.7711050000       12.5731650000       23.2437426779
  S        24.1549450000        6.6607250000       29.3652326779
  S        25.8780550000        2.9236650000       29.3652326779
  S        24.1549450000        2.9236650000       23.4440326779
  S        25.8780550000        6.6607250000       23.4440326779
  S        29.3872450000        0.2277250000       29.3652326779
  S        31.1103750000        9.3566650000       29.3652326779
  S        29.3872450000        9.3566650000       23.4440326779
  S        31.1103750000        0.2277250000       23.4440326779
  S        23.2619250000        9.8772250000       23.2437426779
  S        21.5388050000        6.1401650000       23.2437426779
  S        29.2980950000        2.7951350000       21.4773226779
  S        25.9672050000        0.3562550000       21.4773226779
  S        23.3510750000        6.0116350000       27.5988126779
  S        26.6819650000        3.5727550000       27.5988126779
  S        23.3510750000        3.5727550000       25.2104626779
  S        26.6819650000        6.0116350000       25.2104626779
  S        28.5833550000       12.4446350000       27.5988126779
  S        21.4496450000       10.0057550000       27.5988126779
  S        28.5833550000       10.0057550000       25.2104626779
  S        21.4496450000       12.4446350000       25.2104626779
  S        24.0657950000        9.2281350000       21.4773226779
  S        31.1995250000        6.7892550000       21.4773226779
  S        29.3170350000        4.3717350000       20.1736826779
  S        25.9482750000       11.6456550000       20.1736826779
  S        23.3321150000        7.5882350000       26.2951926779
  S        26.7008850000        1.9961550000       26.2951926779
  S        23.3321150000        1.9961550000       26.5140826779
  S        26.7008850000        7.5882350000       26.5140826779
  S        28.5644150000        1.1552350000       26.2951926779
  S        21.4685850000        8.4291550000       26.2951926779
  S        28.5644150000        8.4291550000       26.5140826779
  S        21.4685850000        1.1552350000       26.5140826779
  S        24.0847550000       10.8047350000       20.1736826779
  S        31.1805650000        5.2126550000       20.1736826779
  S        30.0483050000       16.6588950000       24.5324426779
  S        25.2170050000       25.0904950000       24.5324426779
  S        22.6008550000       19.8753950000       30.6539426779
  S        27.4321350000       15.4409950000       30.6539426779
  S        22.6008550000       15.4409950000       22.1553426779
  S        27.4321350000       19.8753950000       22.1553426779
  S        27.8331750000       13.4423950000       30.6539426779
  S        22.1998550000       21.8739950000       30.6539426779
  S        27.8331750000       21.8739950000       22.1553426779
  S        22.1998550000       13.4423950000       22.1553426779
  S        24.8160050000       23.0918950000       24.5324426779
  S        30.4493050000       18.6574950000       24.5324426779
  S        28.4942050000       16.3102250000       23.2437426779
  S        26.7711050000       25.4391650000       23.2437426779
  S        24.1549450000       19.5267250000       29.3652326779
  S        25.8780550000       15.7896650000       29.3652326779
  S        24.1549450000       15.7896650000       23.4440326779
  S        25.8780550000       19.5267250000       23.4440326779
  S        29.3872450000       13.0937250000       29.3652326779
  S        31.1103750000       22.2226650000       29.3652326779
  S        29.3872450000       22.2226650000       23.4440326779
  S        31.1103750000       13.0937250000       23.4440326779
  S        23.2619250000       22.7432250000       23.2437426779
  S        21.5388050000       19.0061650000       23.2437426779
  S        29.2980950000       15.6611350000       21.4773226779
  S        25.9672050000       13.2222550000       21.4773226779
  S        23.3510750000       18.8776350000       27.5988126779
  S        26.6819650000       16.4387550000       27.5988126779
  S        23.3510750000       16.4387550000       25.2104626779
  S        26.6819650000       18.8776350000       25.2104626779
  S        28.5833550000       25.3106350000       27.5988126779
  S        21.4496450000       22.8717550000       27.5988126779
  S        28.5833550000       22.8717550000       25.2104626779
  S        21.4496450000       25.3106350000       25.2104626779
  S        24.0657950000       22.0941350000       21.4773226779
  S        31.1995250000       19.6552550000       21.4773226779
  S        29.3170350000       17.2377350000       20.1736826779
  S        25.9482750000       24.5116550000       20.1736826779
  S        23.3321150000       20.4542350000       26.2951926779
  S        26.7008850000       14.8621550000       26.2951926779
  S        23.3321150000       14.8621550000       26.5140826779
  S        26.7008850000       20.4542350000       26.5140826779
  S        28.5644150000       14.0212350000       26.2951926779
  S        21.4685850000       21.2951550000       26.2951926779
  S        28.5644150000       21.2951550000       26.5140826779
  S        21.4685850000       14.0212350000       26.5140826779
  S        24.0847550000       23.6707350000       20.1736826779
  S        31.1805650000       18.0786550000       20.1736826779
  S         1.6546737685        9.0689682425       34.9260666034
  S         6.5536432653        0.6420129475       34.7073552269
  S         9.1110217245        5.8260828203       28.3676951643
  S         4.2891447449       10.2292496026       28.3697089812
  S         9.4943164989       12.1686326579       38.2888338194
  S         4.2299542099        5.8019141347       37.1887147015
  S         3.8882035642       12.2519234741       28.3877221972
  S         9.5163338858        3.8051354365       28.3386726507
  S         3.8601652454        3.7678919722       37.1369421008
  S        11.0703878825       13.3034103942       37.4994905808
  S         6.9314415702        2.6675738897       34.8350686303
  S         1.2766601739        7.0461503227       34.7481490851
  S         3.1307667724        9.3779930334       36.3453529931
  S         4.9370467305        0.1717499168       35.9136889301
  S         7.5536150681        6.2025197083       29.6803350493
  S         5.8648264166        9.8259388748       29.6534831613
  S         8.0857667080        9.5650710650       36.0745817942
  S         5.8072088172        6.2670713062       35.9326371676
  S         2.3314976653       12.6410156462       29.6964082034
  S         0.6295762175        3.3801195590       29.6454033072
  S         2.3368121396        3.3717302324       35.7943695523
  S         0.5753927907       12.6138469843       35.8739046683
  S         8.4576231054        2.9928910304       36.1973727094
  S        10.2108911110        6.4608746155       35.8935988482
  S         2.2543894620        9.8477126811       38.1638565059
  S         5.6414305783       11.8257617450       37.6499009357
  S         8.3281282948        6.8042617361       31.5014421153
  S         5.1090122741        9.1707971841       31.4625255585
  S         8.6666006115        9.1188487713       34.1373808388
  S         5.0589302293        6.9155725511       34.1178488704
  S         3.1226745682        0.3738980899       31.4772059913
  S        10.3411351920        2.7535125735       31.4287934794
  S         3.1592543506        2.8175063231       33.9775308078
  S        10.2820185265        0.4105134854       33.9413459513
  S         7.6490548442        3.4982463818       38.0382825123
  S         0.2309507062        5.8168545680       37.7228076739
  S         2.0909473984        8.1489974981       39.3309610917
  S         5.6255494530        1.0049966664       39.1250600197
  S         8.3941427675        5.1765479396       32.7778011752
  S         5.0404413449       10.7420490477       32.8039711748
  S         8.4094899260       10.7470229278       32.9441013860
  S         5.0515743239        5.3525437907       32.7584272056
  S         3.1525916578       11.5797707903       32.7971117935
  S        10.2790488733        4.3320923844       32.7644223801
  S         3.1944354786        4.4492025660       32.7062386833
  S        10.1795566068       11.8850557013       32.7719764676
  S         7.5266467719        1.8224078585       39.2445865795
  S         0.1958023045        7.3303342791       39.1338261394
  S         1.7229756670       21.9214809532       34.8085990981
  S         6.4925782480       13.4369237116       34.7955596785
  S         9.1032812498       18.6771978145       28.3785222551
  S         4.2957910883       23.0713822658       28.3655316253
  S         9.1967076433       23.1296266226       37.1181221760
  S         4.3624473197       18.7908943007       37.2430451488
  S         3.9018275567       25.0949764068       28.3610930525
  S         9.5125106977       16.6566755715       28.3681519185
  S         3.8258595939       16.7957360097       37.4462372166
  S         9.5640203027       25.1612983073       37.0874978769
  S         6.9676618145       15.4414474977       34.9933164085
  S         1.3253807991       19.8949682022       34.7734538023
  S         3.2532747887       22.3025520584       36.1519539253
  S         4.8738537458       12.7969242758       36.0051386114
  S         7.5408778659       19.0616732981       29.6835041332
  S         5.8578549716       22.6693478759       29.6647457857
  S         7.6322017934       22.6901969707       35.8340927374
  S         5.8850560065       19.0291985204       35.8778636984
  S         2.3417659216       25.4968666543       29.6616570023
  S         0.6451257110       16.2543875046       29.6653529680
  S         2.3631738910       16.2128556955       36.0831789096
  S         0.5919169340       25.5325362793       35.8748230568
  S         8.7215984099       15.5804523717       36.2237474853
  S        10.2999432518       19.6196761942       36.3183313554
  S         2.4510799991       22.8895948565       37.9699682191
  S         5.6176779971       25.2022868911       37.7387061837
  S         8.3119762559       19.6734206019       31.5015472522
  S         5.0788611841       22.0429436062       31.4756315911
  S         8.4001393960       22.0512125266       34.0221849463
  S         5.0532875581       19.6051155452       34.0663420569
  S         3.1113900951       13.2122939141       31.5268777455
  S        10.3286428664       15.6344618002       31.4792569341
  S         3.1971955604       15.5298737322       34.3284932131
  S        10.2811157391       13.3663453432       34.1684631954
  S         8.4266746774       16.9635889033       37.6751331579
  S         0.3734358847       18.8758433680       37.8544930091
  S         2.3185434847       21.2685775796       39.2480621628
  S         5.6879348551       13.1060772014       39.2723038535
  S         8.3830781425       18.0662809338       32.8078501780
  S         5.0281813211       23.6310920140       32.7998414062
  S         8.4048628130       23.6243446800       32.6762588804
  S         4.9957526231       17.9586449720       32.8162167378
  S         3.1551895914       24.5011941561       32.7817002790
  S        10.2681493476       17.2315404067       32.7935864059
  S         3.1495404863       17.0522805360       32.9160677814
  S        10.2611590508       24.5275391581       32.6476191415
  S         7.5052032533       16.1729691009       39.3451191332
  S         0.4081833834       20.4675861650       39.1749374884
  S        12.1432057686        9.0192344567       34.9546471899
  S        16.9869951526        0.4683591824       34.9587408961
  S        19.5883285512        5.7952997132       28.3647840341
  S        14.7698438505       10.2299924633       28.3542581263
  S        19.5494458298       10.1876406037       37.1068011678
  S        14.8058079513        5.8115302917       37.2179107528
  S        14.3691084597       12.2525223354       28.3810895172
  S        19.9784178643        3.7712321629       28.3515020059
  S        14.4294494197        3.7791104285       37.2133714615
  S        19.9537085065       12.2146694204       37.1214435718
  S        17.3988188591        2.4822606590       34.7579909910
  S        11.9015859268        6.9609692513       34.8276321251
  S        13.6376594593        9.4263268455       36.3323225029
  S        15.4962483431        0.2088990237       36.3715161299
  S        18.0298867302        6.1894783518       29.6707261039
  S        16.3332661131        9.8215579011       29.6519945711
  S        18.0103481904        9.7974079696       35.7795617625
  S        16.3393123435        6.2350839165       35.8938394784
  S        12.7873540396       12.6298585322       29.6626130609
  S        11.0950481683        3.3997362308       29.6164476607
  S        12.8675713432        3.3590513844       35.9216489643
  S        11.6170328036       12.5742877205       35.7066540679
  S        19.0592585583        2.9584187307       35.9009620360
  S        20.6249596011        6.6434089640       36.2617389723
  S        12.7059013107        9.9748516719       38.1083240025
  S        15.9376282558       12.2349828791       37.6082580069
  S        18.8174580163        6.8044820722       31.4807772618
  S        15.5597609361        9.1336914973       31.4401795427
  S        18.8043571446        9.2024791600       33.9643338794
  S        15.5447163708        6.8364858973       34.0797899047
  S        13.5796700521        0.4425064627       31.4375893119
  S        20.7634804422        2.7339783003       31.4581454218
  S        13.6323680396        2.7500920392       34.0966333622
  S        20.8597120774        0.2788447706       34.0977849125
  S        18.4490985213        3.7210471153       37.7248233714
  S        10.7013901068        5.9113366265       37.8188330067
  S        12.4582526455        8.3547706132       39.3839519264
  S        16.5470289622        1.4450970241       39.3548363382
  S        18.8773613395        5.2101603457       32.7971798645
  S        15.4379392237       10.6853793332       32.8061686114
  S        18.8477755359       10.8142328571       32.6657268776
  S        15.5089665787        5.2350941350       32.7662106314
  S        13.5407614467       11.4999266904       32.7438747049
  S        20.7464401512        4.3326545319       32.7697728508
  S        13.6461997905        4.3467916250       32.7792845239
  S        20.7191967974       11.6847846517       32.6857463321
  S        18.4578647282        2.2230900954       39.1517335564
  S        10.5686660471        7.5734402382       39.0625475153
  S        12.1868139871       21.8663428683       34.6657206860
  S        17.0492142140       13.5305468185       34.6847894001
  S        19.5811224110       18.6903521665       28.3775290107
  S        14.7337049279       23.0731623221       28.3566057054
  S        19.6402184846       23.0447693235       37.2777736698
  S        14.8227930250       18.7090811221       37.1533110431
  S        14.3411923718       25.0968604561       28.3409613350
  S        19.9644181094       16.6650943681       28.3568168213
  S        14.3494533457       16.6957685723       37.1784233183
  S        20.1009699097       25.0616405802       37.2458603594
  S        17.4527643246       15.5402098016       34.9358072076
  S        11.7754665928       19.8548009737       34.8890584689
  S        13.8527818008       22.3561595135       35.7964712481
  S        15.3663391305       13.0394495806       35.7874115284
  S        18.0451766266       19.0973595931       29.7060985525
  S        16.3091131253       22.6803393440       29.6410735961
  S        18.0589926399       22.6604724694       35.9996307593
  S        16.3762065162       19.0474209007       35.8295204861
  S        12.7873761451       25.5092700767       29.6475602199
  S        11.0837449514       16.2649197858       29.6592418418
  S        12.7747430276       16.3387512700       35.8851711753
  S        11.0949135493       25.5663824377       35.7539156993
  S        18.9202141390       15.7722514627       36.3809288917
  S        20.5589509153       19.3465861550       36.1021137175
  S        13.2547207210       23.1473111015       37.6121964634
  S        16.3494841634       25.4716839819       38.2017262057
  S        18.8646973827       19.6812001240       31.5132697290
  S        15.5517128575       22.1149436483       31.4806302242