     582
 i =      182, E =     -5927.9473656384
  S         9.1190950000        3.7928950000       24.6671400000
  S         4.2878150000       12.2244950000       24.6671400000
  S         1.6716450000        7.0093950000       30.7886400000
  S         6.5029550000        2.5749950000       30.7886400000
  S         1.6716450000        2.5749950000       22.2900400000
  S         6.5029550000        7.0093950000       22.2900400000
  S         6.9039650000        0.5763950000       30.7886400000
  S         1.2706450000        9.0079950000       30.7886400000
  S         6.9039650000        9.0079950000       22.2900400000
  S         1.2706450000        0.5763950000       22.2900400000
  S         3.8867850000       10.2258950000       24.6671400000
  S         9.5200950000        5.7914950000       24.6671400000
  S         7.5650250000        3.4442250000       23.3784400000
  S         5.8418950000       12.5731650000       23.3784400000
  S         3.2257650000        6.6607250000       29.4999300000
  S         4.9488550000        2.9236650000       29.4999300000
  S         3.2257650000        2.9236650000       23.5787300000
  S         4.9488550000        6.6607250000       23.5787300000
  S         8.4580450000        0.2277250000       29.4999300000
  S        10.1811650000        9.3566650000       29.4999300000
  S         8.4580450000        9.3566650000       23.5787300000
  S        10.1811650000        0.2277250000       23.5787300000
  S         2.3327050000        9.8772250000       23.3784400000
  S         0.6095950000        6.1401650000       23.3784400000
  S         8.3688950000        2.7951350000       21.6120200000
  S         5.0380050000        0.3562550000       21.6120200000
  S         2.4218550000        6.0116350000       27.7335100000
  S         5.7527450000        3.5727550000       27.7335100000
  S         2.4218550000        3.5727550000       25.3451600000
  S         5.7527450000        6.0116350000       25.3451600000
  S         7.6541750000       12.4446350000       27.7335100000
  S         0.5204350000       10.0057550000       27.7335100000
  S         7.6541750000       10.0057550000       25.3451600000
  S         0.5204350000       12.4446350000       25.3451600000
  S         3.1366050000        9.2281350000       21.6120200000
  S        10.2703150000        6.7892550000       21.6120200000
  S         8.3878550000        4.3717350000       20.3083800000
  S         5.0190650000       11.6456550000       20.3083800000
  S         2.4029250000        7.5882350000       26.4298900000
  S         5.7716750000        1.9961550000       26.4298900000
  S         2.4029250000        1.9961550000       26.6487800000
  S         5.7716750000        7.5882350000       26.6487800000
  S         7.6352050000        1.1552350000       26.4298900000
  S         0.5394050000        8.4291550000       26.4298900000
  S         7.6352050000        8.4291550000       26.6487800000
  S         0.5394050000        1.1552350000       26.6487800000
  S         3.1555450000       10.8047350000       20.3083800000
  S        10.2513850000        5.2126550000       20.3083800000
  S         9.1190950000       16.6588950000       24.6671400000
  S         4.2878150000       25.0904950000       24.6671400000
  S         1.6716450000       19.8753950000       30.7886400000
  S         6.5029550000       15.4409950000       30.7886400000
  S         1.6716450000       15.4409950000       22.2900400000
  S         6.5029550000       19.8753950000       22.2900400000
  S         6.9039650000       13.4423950000       30.7886400000
  S         1.2706450000       21.8739950000       30.7886400000
  S         6.9039650000       21.8739950000       22.2900400000
  S         1.2706450000       13.4423950000       22.2900400000
  S         3.8867850000       23.0918950000       24.6671400000
  S         9.5200950000       18.6574950000       24.6671400000
  S         7.5650250000       16.3102250000       23.3784400000
  S         5.8418950000       25.4391650000       23.3784400000
  S         3.2257650000       19.5267250000       29.4999300000
  S         4.9488550000       15.7896650000       29.4999300000
  S         3.2257650000       15.7896650000       23.5787300000
  S         4.9488550000       19.5267250000       23.5787300000
  S         8.4580450000       13.0937250000       29.4999300000
  S        10.1811650000       22.2226650000       29.4999300000
  S         8.4580450000       22.2226650000       23.5787300000
  S        10.1811650000       13.0937250000       23.5787300000
  S         2.3327050000       22.7432250000       23.3784400000
  S         0.6095950000       19.0061650000       23.3784400000
  S         8.3688950000       15.6611350000       21.6120200000
  S         5.0380050000       13.2222550000       21.6120200000
  S         2.4218550000       18.8776350000       27.7335100000
  S         5.7527450000       16.4387550000       27.7335100000
  S         2.4218550000       16.4387550000       25.3451600000
  S         5.7527450000       18.8776350000       25.3451600000
  S         7.6541750000       25.3106350000       27.7335100000
  S         0.5204350000       22.8717550000       27.7335100000
  S         7.6541750000       22.8717550000       25.3451600000
  S         0.5204350000       25.3106350000       25.3451600000
  S         3.1366050000       22.0941350000       21.6120200000
  S        10.2703150000       19.6552550000       21.6120200000
  S         8.3878550000       17.2377350000       20.3083800000
  S         5.0190650000       24.5116550000       20.3083800000
  S         2.4029250000       20.4542350000       26.4298900000
  S         5.7716750000       14.8621550000       26.4298900000
  S         2.4029250000       14.8621550000       26.6487800000
  S         5.7716750000       20.4542350000       26.6487800000
  S         7.6352050000       14.0212350000       26.4298900000
  S         0.5394050000       21.2951550000       26.4298900000
  S         7.6352050000       21.2951550000       26.6487800000
  S         0.5394050000       14.0212350000       26.6487800000
  S         3.1555450000       23.6707350000       20.3083800000
  S        10.2513850000       18.0786550000       20.3083800000
  S        19.5836850000        3.7928950000       24.6671400000
  S        14.7524050000       12.2244950000       24.6671400000
  S        12.1362650000        7.0093950000       30.7886400000
  S        16.9675550000        2.5749950000       30.7886400000
  S        12.1362650000        2.5749950000       22.2900400000
  S        16.9675550000        7.0093950000       22.2900400000
  S        17.3685550000        0.5763950000       30.7886400000
  S        11.7352450000        9.0079950000       30.7886400000
  S        17.3685550000        9.0079950000       22.2900400000
  S        11.7352450000        0.5763950000       22.2900400000
  S        14.3514050000       10.2258950000       24.6671400000
  S        19.9847250000        5.7914950000       24.6671400000
  S        18.0296050000        3.4442250000       23.3784400000
  S        16.3064950000       12.5731650000       23.3784400000
  S        13.6903550000        6.6607250000       29.4999300000
  S        15.4134750000        2.9236650000       29.4999300000
  S        13.6903550000        2.9236650000       23.5787300000
  S        15.4134750000        6.6607250000       23.5787300000
  S        18.9226550000        0.2277250000       29.4999300000
  S        20.6457550000        9.3566650000       29.4999300000
  S        18.9226550000        9.3566650000       23.5787300000
  S        20.6457550000        0.2277250000       23.5787300000
  S        12.7972950000        9.8772250000       23.3784400000
  S        11.0742150000        6.1401650000       23.3784400000
  S        18.8335050000        2.7951350000       21.6120200000
  S        15.5026250000        0.3562550000       21.6120200000
  S        12.8864450000        6.0116350000       27.7335100000
  S        16.2173450000        3.5727550000       27.7335100000
  S        12.8864450000        3.5727550000       25.3451600000
  S        16.2173450000        6.0116350000       25.3451600000
  S        18.1187550000       12.4446350000       27.7335100000
  S        10.9850650000       10.0057550000       27.7335100000
  S        18.1187550000       10.0057550000       25.3451600000
  S        10.9850650000       12.4446350000       25.3451600000
  S        13.6012050000        9.2281350000       21.6120200000
  S        20.7349050000        6.7892550000       21.6120200000
  S        18.8524350000        4.3717350000       20.3083800000
  S        15.4836650000       11.6456550000       20.3083800000
  S        12.8675250000        7.5882350000       26.4298900000
  S        16.2363050000        1.9961550000       26.4298900000
  S        12.8675250000        1.9961550000       26.6487800000
  S        16.2363050000        7.5882350000       26.6487800000
  S        18.0998250000        1.1552350000       26.4298900000
  S        11.0039850000        8.4291550000       26.4298900000
  S        18.0998250000        8.4291550000       26.6487800000
  S        11.0039850000        1.1552350000       26.6487800000
  S        13.6201250000       10.8047350000       20.3083800000
  S        20.7159750000        5.2126550000       20.3083800000
  S        19.5836850000       16.6588950000       24.6671400000
  S        14.7524050000       25.0904950000       24.6671400000
  S        12.1362650000       19.8753950000       30.7886400000
  S        16.9675550000       15.4409950000       30.7886400000
  S        12.1362650000       15.4409950000       22.2900400000
  S        16.9675550000       19.8753950000       22.2900400000
  S        17.3685550000       13.4423950000       30.7886400000
  S        11.7352450000       21.8739950000       30.7886400000
  S        17.3685550000       21.8739950000       22.2900400000
  S        11.7352450000       13.4423950000       22.2900400000
  S        14.3514050000       23.0918950000       24.6671400000
  S        19.9847250000       18.6574950000       24.6671400000
  S        18.0296050000       16.3102250000       23.3784400000
  S        16.3064950000       25.4391650000       23.3784400000
  S        13.6903550000       19.5267250000       29.4999300000
  S        15.4134750000       15.7896650000       29.4999300000
  S        13.6903550000       15.7896650000       23.5787300000
  S        15.4134750000       19.5267250000       23.5787300000
  S        18.9226550000       13.0937250000       29.4999300000
  S        20.6457550000       22.2226650000       29.4999300000
  S        18.9226550000       22.2226650000       23.5787300000
  S        20.6457550000       13.0937250000       23.5787300000
  S        12.7972950000       22.7432250000       23.3784400000
  S        11.0742150000       19.0061650000       23.3784400000
  S        18.8335050000       15.6611350000       21.6120200000
  S        15.5026250000       13.2222550000       21.6120200000
  S        12.8864450000       18.8776350000       27.7335100000
  S        16.2173450000       16.4387550000       27.7335100000
  S        12.8864450000       16.4387550000       25.3451600000
  S        16.2173450000       18.8776350000       25.3451600000
  S        18.1187550000       25.3106350000       27.7335100000
  S        10.9850650000       22.8717550000       27.7335100000
  S        18.1187550000       22.8717550000       25.3451600000
  S        10.9850650000       25.3106350000       25.3451600000
  S        13.6012050000       22.0941350000       21.6120200000
  S        20.7349050000       19.6552550000       21.6120200000
  S        18.8524350000       17.2377350000       20.3083800000
  S        15.4836650000       24.5116550000       20.3083800000
  S        12.8675250000       20.4542350000       26.4298900000
  S        16.2363050000       14.8621550000       26.4298900000
  S        12.8675250000       14.8621550000       26.6487800000
  S        16.2363050000       20.4542350000       26.6487800000
  S        18.0998250000       14.0212350000       26.4298900000
  S        11.0039850000       21.2951550000       26.4298900000
  S        18.0998250000       21.2951550000       26.6487800000
  S        11.0039850000       14.0212350000       26.6487800000
  S        13.6201250000       23.6707350000       20.3083800000
  S        20.7159750000       18.0786550000       20.3083800000
  S        30.0483050000        3.7928950000       24.6671400000
  S        25.2170050000       12.2244950000       24.6671400000
  S        22.6008550000        7.0093950000       30.7886400000
  S        27.4321350000        2.5749950000       30.7886400000
  S        22.6008550000        2.5749950000       22.2900400000
  S        27.4321350000        7.0093950000       22.2900400000
  S        27.8331750000        0.5763950000       30.7886400000
  S        22.1998550000        9.0079950000       30.7886400000
  S        27.8331750000        9.0079950000       22.2900400000
  S        22.1998550000        0.5763950000       22.2900400000
  S        24.8160050000       10.2258950000       24.6671400000
  S        30.4493050000        5.7914950000       24.6671400000
  S        28.4942050000        3.4442250000       23.3784400000
  S        26.7711050000       12.5731650000       23.3784400000
  S        24.1549450000        6.6607250000       29.4999300000
  S        25.8780550000        2.9236650000       29.4999300000
  S        24.1549450000        2.9236650000       23.5787300000
  S        25.8780550000        6.6607250000       23.5787300000
  S        29.3872450000        0.2277250000       29.4999300000
  S        31.1103750000        9.3566650000       29.4999300000
  S        29.3872450000        9.3566650000       23.5787300000
  S        31.1103750000        0.2277250000       23.5787300000
  S        23.2619250000        9.8772250000       23.3784400000
  S        21.5388050000        6.1401650000       23.3784400000
  S        29.2980950000        2.7951350000       21.6120200000
  S        25.9672050000        0.3562550000       21.6120200000
  S        23.3510750000        6.0116350000       27.7335100000
  S        26.6819650000        3.5727550000       27.7335100000
  S        23.3510750000        3.5727550000       25.3451600000
  S        26.6819650000        6.0116350000       25.3451600000
  S        28.5833550000       12.4446350000       27.7335100000
  S        21.4496450000       10.0057550000       27.7335100000
  S        28.5833550000       10.0057550000       25.3451600000
  S        21.4496450000       12.4446350000       25.3451600000
  S        24.0657950000        9.2281350000       21.6120200000
  S        31.1995250000        6.7892550000       21.6120200000
  S        29.3170350000        4.3717350000       20.3083800000
  S        25.9482750000       11.6456550000       20.3083800000
  S        23.3321150000        7.5882350000       26.4298900000
  S        26.7008850000        1.9961550000       26.4298900000
  S        23.3321150000        1.9961550000       26.6487800000
  S        26.7008850000        7.5882350000       26.6487800000
  S        28.5644150000        1.1552350000       26.4298900000
  S        21.4685850000        8.4291550000       26.4298900000
  S        28.5644150000        8.4291550000       26.6487800000
  S        21.4685850000        1.1552350000       26.6487800000
  S        24.0847550000       10.8047350000       20.3083800000
  S        31.1805650000        5.2126550000       20.3083800000
  S        30.0483050000       16.6588950000       24.6671400000
  S        25.2170050000       25.0904950000       24.6671400000
  S        22.6008550000       19.8753950000       30.7886400000
  S        27.4321350000       15.4409950000       30.7886400000
  S        22.6008550000       15.4409950000       22.2900400000
  S        27.4321350000       19.8753950000       22.2900400000
  S        27.8331750000       13.4423950000       30.7886400000
  S        22.1998550000       21.8739950000       30.7886400000
  S        27.8331750000       21.8739950000       22.2900400000
  S        22.1998550000       13.4423950000       22.2900400000
  S        24.8160050000       23.0918950000       24.6671400000
  S        30.4493050000       18.6574950000       24.6671400000
  S        28.4942050000       16.3102250000       23.3784400000
  S        26.7711050000       25.4391650000       23.3784400000
  S        24.1549450000       19.5267250000       29.4999300000
  S        25.8780550000       15.7896650000       29.4999300000
  S        24.1549450000       15.7896650000       23.5787300000
  S        25.8780550000       19.5267250000       23.5787300000
  S        29.3872450000       13.0937250000       29.4999300000
  S        31.1103750000       22.2226650000       29.4999300000
  S        29.3872450000       22.2226650000       23.5787300000
  S        31.1103750000       13.0937250000       23.5787300000
  S        23.2619250000       22.7432250000       23.3784400000
  S        21.5388050000       19.0061650000       23.3784400000
  S        29.2980950000       15.6611350000       21.6120200000
  S        25.9672050000       13.2222550000       21.6120200000
  S        23.3510750000       18.8776350000       27.7335100000
  S        26.6819650000       16.4387550000       27.7335100000
  S        23.3510750000       16.4387550000       25.3451600000
  S        26.6819650000       18.8776350000       25.3451600000
  S        28.5833550000       25.3106350000       27.7335100000
  S        21.4496450000       22.8717550000       27.7335100000
  S        28.5833550000       22.8717550000       25.3451600000
  S        21.4496450000       25.3106350000       25.3451600000
  S        24.0657950000       22.0941350000       21.6120200000
  S        31.1995250000       19.6552550000       21.6120200000
  S        29.3170350000       17.2377350000       20.3083800000
  S        25.9482750000       24.5116550000       20.3083800000
  S        23.3321150000       20.4542350000       26.4298900000
  S        26.7008850000       14.8621550000       26.4298900000
  S        23.3321150000       14.8621550000       26.6487800000
  S        26.7008850000       20.4542350000       26.6487800000
  S        28.5644150000       14.0212350000       26.4298900000
  S        21.4685850000       21.2951550000       26.4298900000
  S        28.5644150000       21.2951550000       26.6487800000
  S        21.4685850000       14.0212350000       26.6487800000
  S        24.0847550000       23.6707350000       20.3083800000
  S        31.1805650000       18.0786550000       20.3083800000
  S         1.6782959133        9.0773093838       35.1321172926
  S         6.5563676212        0.6772266284       34.8485292776
  S         9.1178236503        5.8203633797       28.4913570757
  S         4.2605463662       10.2038303175       28.7482445440
  S         9.3638270507       12.2227574152       38.3511252945
  S         4.2608666288        5.7999071633       37.4316399306
  S         3.8584265452       12.2240042540       28.6693512558
  S         9.5213524851        3.7985736934       28.4827390197
  S         3.8905060076        3.7675840594       37.3177854945
  S        10.9867747842       13.3420629198       37.6586642107
  S         6.9656655420        2.6956834830       34.9957455755
  S         1.3210051105        7.0435268519       34.9641605473
  S         3.1138780786        9.4184874386       36.5735795040
  S         4.9390299577        0.2196410345       36.0594798402
  S         7.5460306531        6.2099219336       29.7830800804
  S         5.8433011134        9.8584639154       30.0362737526
  S         7.9265106862        9.7999577379       36.0008224916
  S         5.8468294443        6.3015772156       36.2008186014
  S         2.3404738704       12.6656012935       30.0169502670
  S         0.6355028164        3.3759780695       29.7693822898
  S         2.3700470472        3.4023816234       35.9623518256
  S         0.5641438513       12.5981111066       35.9279782891
  S         8.5029530835        2.9830015085       36.3534777570
  S        10.0677854457        6.6077368925       35.9853951545
  S         2.1046880096        9.8750682739       38.3553479691
  S         5.4409534961       11.5577485655       37.7264340993
  S         8.2973820704        6.8281842823       31.6099680798
  S         5.1078243859        9.3891044425       31.9180129555
  S         8.7135111707        9.2575489375       34.1652623311
  S         5.1097795410        7.0158609632       34.4073240710
  S         3.1268039775        0.3878196039       31.6261700932
  S        10.3281841475        2.7763594692       31.5877907952
  S         3.1937023157        2.9156485719       34.1261196085
  S        10.2943967053        0.3993225017       34.1106071002
  S         7.7109029564        3.4875917046       38.2023207835
  S         0.2627116847        5.8154162180       37.9223142446
  S         2.0060850627        8.1919595909       39.5877903631
  S         5.6499499725        1.0215394453       39.2757995084
  S         8.3618631668        5.2021723523       32.8916222224
  S         5.2158878781       11.0620475452       33.1244266137
  S         8.5078748039       10.8172070203       32.8780341301
  S         5.0788168837        5.4985600428       32.9945037629
  S         3.3221131463       11.9347095200       33.1818557985
  S        10.2519578298        4.3721164067       32.9032643681
  S         3.2213906090        4.5964841839       32.9196604205
  S        10.2059086037       12.0759994910       32.8705260223
  S         7.5642081020        1.8072478796       39.3983501068
  S         0.1513596561        7.3218034704       39.3406885340
  S         1.7000891320       21.8411040791       34.9607766879
  S         6.3590674772       13.8212600851       35.2877581541
  S         9.1189292203       18.6368079102       28.4393926957
  S         4.2928969878       23.0622949899       28.5301316694
  S         9.1269025497       23.0970921626       37.2483054414
  S         4.4086691526       18.6093629633       37.4711179453
  S         3.9094412672       25.0878838752       28.5177729424
  S         9.5191758350       16.6159543278       28.5230780012
  S         3.7780329554       16.6280329198       37.5935385939
  S         9.5256890931       25.1235226776       37.2366350851
  S         7.3619689365       15.6027366045       34.8539863431
  S         1.2374549255       19.8304729315       35.0418889461
  S         3.2912455913       22.2210678072       36.2313427214
  S         3.8166730727       12.9529637465       37.5765253583
  S         7.5282460445       19.0821611027       29.6909758986
  S         5.8352418893       22.6521994116       29.8506189919
  S         7.5644443318       22.6914317677       35.9507120316
  S         5.8919780042       18.8198455729       36.0693753280
  S         2.3467772198       25.5047755792       29.8113250334
  S         0.5782087436       16.2478061141       29.8199151899
  S         2.0920752281       16.3639747700       36.3858378733
  S         0.6080965677       25.5171216326       35.9902839629
  S         8.7287609654       15.7931120803       36.3982686097
  S        10.1822443858       19.5758694507       36.4374112075
  S         2.5766161674       22.9070043921       38.0500793126
  S         5.6152626500       25.2302488972       37.8784245535
  S         8.2612400688       19.8054002197       31.4813985296
  S         5.0280366301       22.0347720040       31.6539899526
  S         8.3343903361       22.0691010742       34.1339273170
  S         5.0531664363       19.3863116173       34.2556847418
  S         3.1768761606       13.4384658439       31.7328674157
  S        10.2581047542       15.7545626242       31.7019314007
  S         2.6449261147       15.5402047553       34.5842473023
  S        10.1532094796       13.4305627474       34.3954504041
  S         7.9754305906       16.8260289870       38.0254752402
  S         0.3451496160       18.9759466851       38.1977006651
  S         2.4466191347       21.3433589266       39.3958602693
  S         6.0936689347       11.6629664902       39.6984765524
  S         8.3208384564       18.2780259506       32.8746861423
  S         4.9945365411       23.6249882904       32.9728078621
  S         8.3710796482       23.6649377630       32.8143883110
  S         4.9173465648       17.6720160215       33.0904417275
  S         3.1370854651       24.5289343258       32.9471136239
  S        10.2052212066       17.4354373567       32.9058760720
  S         2.9892855277       16.9938846201       33.1098821114
  S        10.2449093715       24.5300464603       32.7995676742
  S         6.7225727973       15.6377693581       39.1852461584
  S         0.5040647949       20.6219220093       39.4369017897
  S        12.1164998918        9.0891504950       35.1125292464
  S        16.8978969059        0.5168170664       35.0494954675
  S        19.5770688951        5.8018673813       28.4908044412
  S        14.7625413133       10.2328665763       28.4955402208
  S        19.5769045192       10.2039135811       37.2308125583
  S        14.6812832705        5.8510536483       37.3841616220
  S        14.3651498370       12.2565260022       28.5183969088
  S        19.9767219095        3.7796317039       28.4819056210
  S        14.2906470353        3.8218134892       37.3622648095
  S        19.9628300360       12.2327240324       37.2403832624
  S        17.3014585684        2.5353647424       34.8834849651
  S        11.8226891345        7.0388287603       34.9908930387
  S        13.5626341913        9.4642188788       36.5504635141
  S        15.3986325518        0.2312091919       36.4495354778
  S        18.0133950335        6.1917072602       29.7917432568
  S        16.3245495469        9.8257513759       29.7952028751
  S        18.0315824075        9.7986693729       35.9139683262
  S        16.2419095770        6.2745214403       36.0909666788
  S        12.7852281895       12.6450506391       29.7989539987
  S        11.0926204472        3.4019259417       29.7725635256
  S        12.7513935262        3.4227939655       36.0367988080
  S        11.5603207532       12.6120979850       35.8738264157
  S        18.9570602918        3.0036871790       36.0371167769
  S        20.6372439944        6.6319436162       36.3780341671
  S        12.5738982907       10.0670210446       38.2747346624
  S        15.9508972988       12.2506418107       37.7598067259
  S        18.7905219803        6.8148227760       31.6033966398
  S        15.5498715345        9.1455045391       31.5867118033
  S        18.8220072550        9.1969086753       34.0998161177
  S        15.4870004668        6.8799863751       34.2610170918
  S        13.5759575463        0.4289831383       31.5985181003
  S        20.7688486610        2.7608313687       31.5934993691
  S        13.5534860588        2.8033921372       34.2313614060
  S        20.7690381099        0.3850880590       34.1823828795
  S        18.3389321757        3.7379947294       37.8706384546
  S        10.4442160202        6.0737205054       37.9396167303
  S        12.2197468849        8.4715299252       39.5499638265
  S        16.4306916762        1.4345252363       39.4518999495
  S        18.8574673436        5.2228470168       32.9220500147
  S        15.4230382380       10.7020659907       32.9465214761
  S        18.8418799603       10.7984058487       32.7900199877
  S        15.4807488085        5.2797904772       32.9448603686
  S        13.5241462857       11.5147677984       32.8825989057
  S        20.7354571886        4.3640339995       32.8999526999
  S        13.6149750400        4.3981277154       32.9130322588
  S        20.7049622721       11.6888216434       32.7943175402
  S        18.3421729321        2.2172101576       39.2731801480
  S        10.3142508962        7.7612401592       39.1509827399
  S        12.1066531665       21.8457023548       34.8446350528
  S        17.0179497304       13.5324690890       34.8166007307
  S        19.5910541242       18.6759892187       28.4818357165
  S        14.7285820511       23.0852463438       28.4936688121
  S        19.5581555818       23.0851774883       37.3020114621
  S        14.7777507358       18.7122006105       37.2921883363
  S        14.3390834982       25.1095570424       28.4922412053
  S        19.9850820318       16.6526778865       28.4874054731
  S        14.3225864589       16.6948768900       37.3257965828
  S        19.9838633287       25.1088143288       37.3041221008
  S        17.4119179317       15.5471465788       35.0449959851
  S        11.6860005462       19.8330269902       35.0376390238
  S        13.7634887251       22.3144073934       35.9969938225
  S        15.3501096500       13.0377486565       35.9416086767
  S        18.0214562162       19.0832649254       29.7699752121
  S        16.2932446691       22.6823040974       29.7884621544
  S        17.9997557278       22.7006064966       35.9971947203
  S        16.3163902100       19.0636954100       35.9549770364
  S        12.7845584666       25.5193609419       29.7989053564
  S        11.0590080782       16.2662166064       29.8624340169
  S        12.7435609563       16.3185337526       36.0445864439
  S        11.0776712706       25.5178700040       35.9241431366
  S        18.8960168261       15.8043152418       36.4679262366
  S        20.5706747067       19.4659981433       36.0106183781
  S        13.1503445396       23.0708395901       37.8236409418
  S        16.2422009766       25.4735348675       38.2780279470
  S        18.7884291290       19.6898358929       31.5916224016
  S        15.5184721741       22.0914436536       31.6127010333