     582
 i =       99, E =     -5927.9442003525
  S         9.1186350000        3.7931000000       24.6650550000
  S         4.2873550000       12.2247000000       24.6650550000
  S         1.6711850000        7.0096000000       30.7865550000
  S         6.5024950000        2.5752000000       30.7865550000
  S         1.6711850000        2.5752000000       22.2879550000
  S         6.5024950000        7.0096000000       22.2879550000
  S         6.9034950000        0.5766000000       30.7865550000
  S         1.2701850000        9.0082000000       30.7865550000
  S         6.9034950000        9.0082000000       22.2879550000
  S         1.2701850000        0.5766000000       22.2879550000
  S         3.8863250000       10.2261000000       24.6650550000
  S         9.5196350000        5.7917000000       24.6650550000
  S         7.5645550000        3.4444300000       23.3763550000
  S         5.8414350000       12.5733700000       23.3763550000
  S         3.2252950000        6.6609300000       29.4978450000
  S         4.9483850000        2.9238700000       29.4978450000
  S         3.2252950000        2.9238700000       23.5766450000
  S         4.9483850000        6.6609300000       23.5766450000
  S         8.4575750000        0.2279300000       29.4978450000
  S        10.1806950000        9.3568700000       29.4978450000
  S         8.4575750000        9.3568700000       23.5766450000
  S        10.1806950000        0.2279300000       23.5766450000
  S         2.3322450000        9.8774300000       23.3763550000
  S         0.6091250000        6.1403700000       23.3763550000
  S         8.3684250000        2.7953400000       21.6099350000
  S         5.0375350000        0.3564600000       21.6099350000
  S         2.4213950000        6.0118400000       27.7314250000
  S         5.7522850000        3.5729600000       27.7314250000
  S         2.4213950000        3.5729600000       25.3430750000
  S         5.7522850000        6.0118400000       25.3430750000
  S         7.6537050000       12.4448400000       27.7314250000
  S         0.5199750000       10.0059600000       27.7314250000
  S         7.6537050000       10.0059600000       25.3430750000
  S         0.5199750000       12.4448400000       25.3430750000
  S         3.1361450000        9.2283400000       21.6099350000
  S        10.2698450000        6.7894600000       21.6099350000
  S         8.3873850000        4.3719400000       20.3062950000
  S         5.0186050000       11.6458600000       20.3062950000
  S         2.4024650000        7.5884400000       26.4278050000
  S         5.7712150000        1.9963600000       26.4278050000
  S         2.4024650000        1.9963600000       26.6466950000
  S         5.7712150000        7.5884400000       26.6466950000
  S         7.6347450000        1.1554400000       26.4278050000
  S         0.5389350000        8.4293600000       26.4278050000
  S         7.6347450000        8.4293600000       26.6466950000
  S         0.5389350000        1.1554400000       26.6466950000
  S         3.1550750000       10.8049400000       20.3062950000
  S        10.2509150000        5.2128600000       20.3062950000
  S         9.1186350000       16.6591000000       24.6650550000
  S         4.2873550000       25.0907000000       24.6650550000
  S         1.6711850000       19.8756000000       30.7865550000
  S         6.5024950000       15.4412000000       30.7865550000
  S         1.6711850000       15.4412000000       22.2879550000
  S         6.5024950000       19.8756000000       22.2879550000
  S         6.9034950000       13.4426000000       30.7865550000
  S         1.2701850000       21.8742000000       30.7865550000
  S         6.9034950000       21.8742000000       22.2879550000
  S         1.2701850000       13.4426000000       22.2879550000
  S         3.8863250000       23.0921000000       24.6650550000
  S         9.5196350000       18.6577000000       24.6650550000
  S         7.5645550000       16.3104300000       23.3763550000
  S         5.8414350000       25.4393700000       23.3763550000
  S         3.2252950000       19.5269300000       29.4978450000
  S         4.9483850000       15.7898700000       29.4978450000
  S         3.2252950000       15.7898700000       23.5766450000
  S         4.9483850000       19.5269300000       23.5766450000
  S         8.4575750000       13.0939300000       29.4978450000
  S        10.1806950000       22.2228700000       29.4978450000
  S         8.4575750000       22.2228700000       23.5766450000
  S        10.1806950000       13.0939300000       23.5766450000
  S         2.3322450000       22.7434300000       23.3763550000
  S         0.6091250000       19.0063700000       23.3763550000
  S         8.3684250000       15.6613400000       21.6099350000
  S         5.0375350000       13.2224600000       21.6099350000
  S         2.4213950000       18.8778400000       27.7314250000
  S         5.7522850000       16.4389600000       27.7314250000
  S         2.4213950000       16.4389600000       25.3430750000
  S         5.7522850000       18.8778400000       25.3430750000
  S         7.6537050000       25.3108400000       27.7314250000
  S         0.5199750000       22.8719600000       27.7314250000
  S         7.6537050000       22.8719600000       25.3430750000
  S         0.5199750000       25.3108400000       25.3430750000
  S         3.1361450000       22.0943400000       21.6099350000
  S        10.2698450000       19.6554600000       21.6099350000
  S         8.3873850000       17.2379400000       20.3062950000
  S         5.0186050000       24.5118600000       20.3062950000
  S         2.4024650000       20.4544400000       26.4278050000
  S         5.7712150000       14.8623600000       26.4278050000
  S         2.4024650000       14.8623600000       26.6466950000
  S         5.7712150000       20.4544400000       26.6466950000
  S         7.6347450000       14.0214400000       26.4278050000
  S         0.5389350000       21.2953600000       26.4278050000
  S         7.6347450000       21.2953600000       26.6466950000
  S         0.5389350000       14.0214400000       26.6466950000
  S         3.1550750000       23.6709400000       20.3062950000
  S        10.2509150000       18.0788600000       20.3062950000
  S        19.5832250000        3.7931000000       24.6650550000
  S        14.7519450000       12.2247000000       24.6650550000
  S        12.1358050000        7.0096000000       30.7865550000
  S        16.9670850000        2.5752000000       30.7865550000
  S        12.1358050000        2.5752000000       22.2879550000
  S        16.9670850000        7.0096000000       22.2879550000
  S        17.3680850000        0.5766000000       30.7865550000
  S        11.7347750000        9.0082000000       30.7865550000
  S        17.3680850000        9.0082000000       22.2879550000
  S        11.7347750000        0.5766000000       22.2879550000
  S        14.3509450000       10.2261000000       24.6650550000
  S        19.9842550000        5.7917000000       24.6650550000
  S        18.0291450000        3.4444300000       23.3763550000
  S        16.3060250000       12.5733700000       23.3763550000
  S        13.6898850000        6.6609300000       29.4978450000
  S        15.4130050000        2.9238700000       29.4978450000
  S        13.6898850000        2.9238700000       23.5766450000
  S        15.4130050000        6.6609300000       23.5766450000
  S        18.9221950000        0.2279300000       29.4978450000
  S        20.6452850000        9.3568700000       29.4978450000
  S        18.9221950000        9.3568700000       23.5766450000
  S        20.6452850000        0.2279300000       23.5766450000
  S        12.7968350000        9.8774300000       23.3763550000
  S        11.0737450000        6.1403700000       23.3763550000
  S        18.8330450000        2.7953400000       21.6099350000
  S        15.5021550000        0.3564600000       21.6099350000
  S        12.8859850000        6.0118400000       27.7314250000
  S        16.2168750000        3.5729600000       27.7314250000
  S        12.8859850000        3.5729600000       25.3430750000
  S        16.2168750000        6.0118400000       25.3430750000
  S        18.1182950000       12.4448400000       27.7314250000
  S        10.9845950000       10.0059600000       27.7314250000
  S        18.1182950000       10.0059600000       25.3430750000
  S        10.9845950000       12.4448400000       25.3430750000
  S        13.6007350000        9.2283400000       21.6099350000
  S        20.7344350000        6.7894600000       21.6099350000
  S        18.8519750000        4.3719400000       20.3062950000
  S        15.4831950000       11.6458600000       20.3062950000
  S        12.8670550000        7.5884400000       26.4278050000
  S        16.2358350000        1.9963600000       26.4278050000
  S        12.8670550000        1.9963600000       26.6466950000
  S        16.2358350000        7.5884400000       26.6466950000
  S        18.0993650000        1.1554400000       26.4278050000
  S        11.0035250000        8.4293600000       26.4278050000
  S        18.0993650000        8.4293600000       26.6466950000
  S        11.0035250000        1.1554400000       26.6466950000
  S        13.6196650000       10.8049400000       20.3062950000
  S        20.7155050000        5.2128600000       20.3062950000
  S        19.5832250000       16.6591000000       24.6650550000
  S        14.7519450000       25.0907000000       24.6650550000
  S        12.1358050000       19.8756000000       30.7865550000
  S        16.9670850000       15.4412000000       30.7865550000
  S        12.1358050000       15.4412000000       22.2879550000
  S        16.9670850000       19.8756000000       22.2879550000
  S        17.3680850000       13.4426000000       30.7865550000
  S        11.7347750000       21.8742000000       30.7865550000
  S        17.3680850000       21.8742000000       22.2879550000
  S        11.7347750000       13.4426000000       22.2879550000
  S        14.3509450000       23.0921000000       24.6650550000
  S        19.9842550000       18.6577000000       24.6650550000
  S        18.0291450000       16.3104300000       23.3763550000
  S        16.3060250000       25.4393700000       23.3763550000
  S        13.6898850000       19.5269300000       29.4978450000
  S        15.4130050000       15.7898700000       29.4978450000
  S        13.6898850000       15.7898700000       23.5766450000
  S        15.4130050000       19.5269300000       23.5766450000
  S        18.9221950000       13.0939300000       29.4978450000
  S        20.6452850000       22.2228700000       29.4978450000
  S        18.9221950000       22.2228700000       23.5766450000
  S        20.6452850000       13.0939300000       23.5766450000
  S        12.7968350000       22.7434300000       23.3763550000
  S        11.0737450000       19.0063700000       23.3763550000
  S        18.8330450000       15.6613400000       21.6099350000
  S        15.5021550000       13.2224600000       21.6099350000
  S        12.8859850000       18.8778400000       27.7314250000
  S        16.2168750000       16.4389600000       27.7314250000
  S        12.8859850000       16.4389600000       25.3430750000
  S        16.2168750000       18.8778400000       25.3430750000
  S        18.1182950000       25.3108400000       27.7314250000
  S        10.9845950000       22.8719600000       27.7314250000
  S        18.1182950000       22.8719600000       25.3430750000
  S        10.9845950000       25.3108400000       25.3430750000
  S        13.6007350000       22.0943400000       21.6099350000
  S        20.7344350000       19.6554600000       21.6099350000
  S        18.8519750000       17.2379400000       20.3062950000
  S        15.4831950000       24.5118600000       20.3062950000
  S        12.8670550000       20.4544400000       26.4278050000
  S        16.2358350000       14.8623600000       26.4278050000
  S        12.8670550000       14.8623600000       26.6466950000
  S        16.2358350000       20.4544400000       26.6466950000
  S        18.0993650000       14.0214400000       26.4278050000
  S        11.0035250000       21.2953600000       26.4278050000
  S        18.0993650000       21.2953600000       26.6466950000
  S        11.0035250000       14.0214400000       26.6466950000
  S        13.6196650000       23.6709400000       20.3062950000
  S        20.7155050000       18.0788600000       20.3062950000
  S        30.0478450000        3.7931000000       24.6650550000
  S        25.2165350000       12.2247000000       24.6650550000
  S        22.6003950000        7.0096000000       30.7865550000
  S        27.4316750000        2.5752000000       30.7865550000
  S        22.6003950000        2.5752000000       22.2879550000
  S        27.4316750000        7.0096000000       22.2879550000
  S        27.8327050000        0.5766000000       30.7865550000
  S        22.1993950000        9.0082000000       30.7865550000
  S        27.8327050000        9.0082000000       22.2879550000
  S        22.1993950000        0.5766000000       22.2879550000
  S        24.8155350000       10.2261000000       24.6650550000
  S        30.4488450000        5.7917000000       24.6650550000
  S        28.4937350000        3.4444300000       23.3763550000
  S        26.7706450000       12.5733700000       23.3763550000
  S        24.1544750000        6.6609300000       29.4978450000
  S        25.8775950000        2.9238700000       29.4978450000
  S        24.1544750000        2.9238700000       23.5766450000
  S        25.8775950000        6.6609300000       23.5766450000
  S        29.3867850000        0.2279300000       29.4978450000
  S        31.1099050000        9.3568700000       29.4978450000
  S        29.3867850000        9.3568700000       23.5766450000
  S        31.1099050000        0.2279300000       23.5766450000
  S        23.2614550000        9.8774300000       23.3763550000
  S        21.5383350000        6.1403700000       23.3763550000
  S        29.2976350000        2.7953400000       21.6099350000
  S        25.9667450000        0.3564600000       21.6099350000
  S        23.3506050000        6.0118400000       27.7314250000
  S        26.6814950000        3.5729600000       27.7314250000
  S        23.3506050000        3.5729600000       25.3430750000
  S        26.6814950000        6.0118400000       25.3430750000
  S        28.5828850000       12.4448400000       27.7314250000
  S        21.4491850000       10.0059600000       27.7314250000
  S        28.5828850000       10.0059600000       25.3430750000
  S        21.4491850000       12.4448400000       25.3430750000
  S        24.0653250000        9.2283400000       21.6099350000
  S        31.1990550000        6.7894600000       21.6099350000
  S        29.3165650000        4.3719400000       20.3062950000
  S        25.9478150000       11.6458600000       20.3062950000
  S        23.3316450000        7.5884400000       26.4278050000
  S        26.7004250000        1.9963600000       26.4278050000
  S        23.3316450000        1.9963600000       26.6466950000
  S        26.7004250000        7.5884400000       26.6466950000
  S        28.5639550000        1.1554400000       26.4278050000
  S        21.4681150000        8.4293600000       26.4278050000
  S        28.5639550000        8.4293600000       26.6466950000
  S        21.4681150000        1.1554400000       26.6466950000
  S        24.0842850000       10.8049400000       20.3062950000
  S        31.1800950000        5.2128600000       20.3062950000
  S        30.0478450000       16.6591000000       24.6650550000
  S        25.2165350000       25.0907000000       24.6650550000
  S        22.6003950000       19.8756000000       30.7865550000
  S        27.4316750000       15.4412000000       30.7865550000
  S        22.6003950000       15.4412000000       22.2879550000
  S        27.4316750000       19.8756000000       22.2879550000
  S        27.8327050000       13.4426000000       30.7865550000
  S        22.1993950000       21.8742000000       30.7865550000
  S        27.8327050000       21.8742000000       22.2879550000
  S        22.1993950000       13.4426000000       22.2879550000
  S        24.8155350000       23.0921000000       24.6650550000
  S        30.4488450000       18.6577000000       24.6650550000
  S        28.4937350000       16.3104300000       23.3763550000
  S        26.7706450000       25.4393700000       23.3763550000
  S        24.1544750000       19.5269300000       29.4978450000
  S        25.8775950000       15.7898700000       29.4978450000
  S        24.1544750000       15.7898700000       23.5766450000
  S        25.8775950000       19.5269300000       23.5766450000
  S        29.3867850000       13.0939300000       29.4978450000
  S        31.1099050000       22.2228700000       29.4978450000
  S        29.3867850000       22.2228700000       23.5766450000
  S        31.1099050000       13.0939300000       23.5766450000
  S        23.2614550000       22.7434300000       23.3763550000
  S        21.5383350000       19.0063700000       23.3763550000
  S        29.2976350000       15.6613400000       21.6099350000
  S        25.9667450000       13.2224600000       21.6099350000
  S        23.3506050000       18.8778400000       27.7314250000
  S        26.6814950000       16.4389600000       27.7314250000
  S        23.3506050000       16.4389600000       25.3430750000
  S        26.6814950000       18.8778400000       25.3430750000
  S        28.5828850000       25.3108400000       27.7314250000
  S        21.4491850000       22.8719600000       27.7314250000
  S        28.5828850000       22.8719600000       25.3430750000
  S        21.4491850000       25.3108400000       25.3430750000
  S        24.0653250000       22.0943400000       21.6099350000
  S        31.1990550000       19.6554600000       21.6099350000
  S        29.3165650000       17.2379400000       20.3062950000
  S        25.9478150000       24.5118600000       20.3062950000
  S        23.3316450000       20.4544400000       26.4278050000
  S        26.7004250000       14.8623600000       26.4278050000
  S        23.3316450000       14.8623600000       26.6466950000
  S        26.7004250000       20.4544400000       26.6466950000
  S        28.5639550000       14.0214400000       26.4278050000
  S        21.4681150000       21.2953600000       26.4278050000
  S        28.5639550000       21.2953600000       26.6466950000
  S        21.4681150000       14.0214400000       26.6466950000
  S        24.0842850000       23.6709400000       20.3062950000
  S        31.1800950000       18.0788600000       20.3062950000
  S         1.6833492881        9.0971101489       35.2760270551
  S         6.6738812176        0.6553561646       35.0056732616
  S         9.1072122508        5.8070407614       28.5051821263
  S         4.3005460238       10.2937093617       28.4777894411
  S         9.3760593329       12.0084597405       38.1922038100
  S         4.5508885614        5.8291983016       38.0793302556
  S         3.8521727207       12.3067488637       28.5476065377
  S         9.5317008566        3.7897863151       28.4885927763
  S         3.8567802730        3.9154320414       37.7874165780
  S        11.0081151268       13.1528057550       37.5444359274
  S         7.2866891070        2.6359007298       35.1869760076
  S         1.4062931337        7.0541543968       35.1312798282
  S         3.1271934544        9.4687972489       36.7016295284
  S         5.0530029135        0.2729145180       36.2180836598
  S         7.5147663578        6.1671808936       29.7814026572
  S         5.8923782039        9.9001548397       29.7369919307
  S         7.7630603184        9.5891014122       35.9166290915
  S         6.3342314960        6.0768438963       37.0513241073
  S         2.3199499934       12.6491784240       29.8980616435
  S         0.6822499232        3.4192198966       29.7866863503
  S         2.3542782993        3.6183300712       36.2913170294
  S         0.5836675750       12.6753925835       36.0065347682
  S         8.6958890559        2.8998994947       36.7004603947
  S        10.0618915254        6.5221080308       36.0203611478
  S         2.2459828853        9.9269284992       38.5289406496
  S         5.6066052026       11.7793284068       37.7691369912
  S         8.2409893294        6.7726629848       31.6154217850
  S         5.1467870803        9.0871060869       31.5288723491
  S         8.6422094529        9.1373104335       34.0739624617
  S         4.4598441088        7.3720608909       33.8810848279
  S         3.1433490394        0.4364592001       31.6665485145
  S        10.3234062587        2.7558152100       31.5991596029
  S         3.3648358616        2.8808037956       34.6296943814
  S        10.3450338136        0.3768553139       34.1310879205
  S         7.7574270374        3.3399993379       38.4842450474
  S         0.1622650792        5.9118212527       38.0556546062
  S         2.0210355575        8.2299653732       39.6820335322
  S         5.7631338846        0.8333699487       39.4672968410
  S         8.3051183480        5.1463302506       32.8950978152
  S         5.0632880240       10.6318512112       32.9161163926
  S         8.4056600108       10.7550404166       32.8527067719
  S         5.0876908808        5.5052116433       33.3573473047
  S         3.1814561923       11.4735239788       32.9576328055
  S        10.2107477096        4.3399358509       32.9238973849
  S         3.4524880901        4.2397261817       33.0477126574
  S        10.1424191626       11.9238395571       32.7963748799
  S         7.6761628660        1.6055563602       39.6251222659
  S         0.1120375520        7.4588685923       39.4307556670
  S         1.6775152053       21.8267115434       34.9202065121
  S         6.3447790641       13.4867734491       34.9356619466
  S         9.0996912289       18.6801385124       28.5081885447
  S         4.2720980742       23.0894227220       28.5533547790
  S         9.2465354362       23.0578996751       37.2768356583
  S         4.4520166409       18.7559000579       37.4281162971
  S         3.8883786717       25.1151986391       28.5502329326
  S         9.5053100220       16.6590162469       28.5044207524
  S         3.9276755103       16.7569779446       37.6011894268
  S         9.6508061783       25.0826270302       37.2728533343
  S         6.9152975615       15.4674557709       35.1159906518
  S         1.2775047438       19.8044046076       35.0417664412
  S         3.2685172765       22.2839293897       36.1669746045
  S         4.7848296844       12.8665719420       36.2355777700
  S         7.5312405122       19.0710936368       29.8042785087
  S         5.8359327088       22.6822142822       29.8486887096
  S         7.6593970434       22.6643430442       36.0052418660
  S         5.9324734924       19.0208431416       36.0202813862
  S         2.3436204536       25.5316970741       29.8658496945
  S         0.6204425579       16.2508943001       29.7869503398
  S         2.3848365028       16.2201621911       36.3170249966
  S         0.6391797148       25.5480485103       35.9445908576
  S         8.6255127806       15.5951145074       36.3730389204
  S        10.2731375616       19.5622379984       36.4658075204
  S         2.5518733441       22.9693823533       37.9847992097
  S         5.7096404195       25.1348999273       37.9833734879
  S         8.2946128713       19.6916882060       31.6221408083
  S         5.0592555470       22.0853162228       31.6711535651
  S         8.3906047661       22.0497352566       34.1703030873
  S         5.0465775804       19.5777958225       34.2294480252
  S         3.1316793527       13.1490842295       31.7382881472
  S        10.3040429042       15.6489093389       31.6214095757
  S         3.1303594420       15.5157821744       34.5283288676
  S        10.1603255599       13.3418017563       34.2692744444
  S         8.3013190753       16.8839028249       37.9102816615
  S         0.4928162739       18.9529925308       38.2183822691
  S         2.5121637699       21.4236425372       39.3569314050
  S         5.7137334445       12.8676009003       39.5248134083
  S         8.3564504827       18.0912994882       32.9367990292
  S         5.0425975359       23.6862588078       32.9831678538
  S         8.3965733241       23.6518452373       32.8575117665
  S         4.9651236286       17.9193668432       32.9939261387
  S         3.1833977377       24.5854818306       32.9964354391
  S        10.2393922706       17.2501132053       32.9312554028
  S         3.1067243729       17.0412685930       33.1203208018
  S        10.2685331933       24.5172099100       32.8089247483
  S         7.5584714284       15.9726652227       39.6124912874
  S         0.6053818704       20.6140677336       39.4433639039
  S        12.0448484460        9.0488974712       35.1389735584
  S        16.9098863766        0.5203404855       35.0648110494
  S        19.5771881693        5.8002809338       28.4902487172
  S        14.7677536962       10.2319362140       28.4878114413
  S        19.6029939317       10.1953634602       37.2253631044
  S        14.6946238160        5.8499277436       37.3827065274
  S        14.3662698040       12.2542444994       28.5171828045
  S        19.9784264085        3.7784394522       28.4827715461
  S        14.3167505751        3.8179602151       37.3683098366
  S        19.9857748925       12.2246742456       37.2329413608
  S        17.3144109388        2.5377302379       34.8875371308
  S        11.7815047908        6.9970828458       34.9794766328
  S        13.5329468499        9.4258684071       36.5383307218
  S        15.4162153834        0.2439222485       36.4724103959
  S        18.0140034846        6.1876204672       29.7925232165
  S        16.3316250228        9.8245544206       29.7848033510
  S        18.0537716436        9.7876053340       35.9133849604
  S        16.2448702691        6.2827491308       36.0797986649
  S        12.7804538892       12.6276094468       29.7941032708
  S        11.0936116994        3.4031305438       29.7925251937
  S        12.7716500718        3.4079415307       36.0532266892
  S        11.5774028603       12.5377341332       35.7229552311
  S        18.9738424351        3.0112347321       36.0335828294
  S        20.6685452285        6.6353656364       36.3804876401
  S        12.5848075149        9.9928053462       38.2926998760
  S        15.9775632754       12.2323917422       37.7705204719
  S        18.7910468760        6.8128381458       31.6038106771
  S        15.5598379600        9.1305085137       31.5714032250
  S        18.8369550163        9.1893287220       34.0947755738
  S        15.4731944508        6.8778425652       34.2537846730
  S        13.5820345286        0.4365879624       31.5863935386
  S        20.7772065980        2.7632081554       31.5939004982
  S        13.5596251350        2.7933405954       34.2396611889
  S        20.7804781262        0.3908514275       34.1877236714
  S        18.3622599117        3.7535811417       37.8658208557
  S        10.4976772199        5.9692055668       37.9556641082
  S        12.2654190685        8.3869362982       39.5570819450
  S        16.4615217084        1.4583560365       39.4665030887
  S        18.8657500848        5.2225225222       32.9241075913
  S        15.4310022137       10.6797337800       32.9392280403
  S        18.8521237392       10.7934413209       32.7876058006
  S        15.4666068603        5.2754780125       32.9401674286
  S        13.5330020811       11.4908463212       32.8765074231
  S        20.7459191185        4.3669418051       32.8993392594
  S        13.6024661991        4.3893042486       32.9227430190
  S        20.7155416913       11.6828845549       32.7863375860
  S        18.3724941025        2.2393967574       39.2753385977
  S        10.3587977706        7.6499072953       39.1713506417
  S        12.1667230441       21.8182780979       34.8216626599
  S        17.0288388018       13.4998678887       34.8118902083
  S        19.5919400104       18.6758547405       28.4787807433
  S        14.7276337731       23.0815110069       28.4888275178
  S        19.5636997894       23.0921983099       37.3071054686
  S        14.8150704350       18.6803850488       37.2785523640
  S        14.3384869968       25.1057859651       28.4837107473
  S        19.9833682518       16.6522218321       28.4842990976
  S        14.3519341834       16.6647305820       37.3098399409
  S        19.9916985841       25.1154183148       37.3085190621
  S        17.4199350522       15.5162110692       35.0255042252
  S        11.7457346483       19.8073310333       35.0327854850
  S        13.8439683071       22.2898817209       35.9437397790
  S        15.3684803253       13.0076337164       35.9493020516
  S        18.0301689580       19.0855666373       29.7755489748
  S        16.2974852146       22.6801823099       29.7774203651
  S        18.0056176082       22.7088550407       36.0010875095
  S        16.3592314878       19.0268645898       35.9462754772
  S        12.7862808925       25.5170460296       29.7925762100
  S        11.0705342854       16.2711561199       29.8031176956
  S        12.7671249144       16.2963757311       36.0320432865
  S        11.1697006360       25.4852415541       35.9230796223
  S        18.9118961918       15.7845642614       36.4381300958
  S        20.5794243192       19.4738971540       36.0104848951
  S        13.2654284867       23.0689258613       37.7710322981
  S        16.2650611452       25.4927334140       38.3009507766
  S        18.8100461434       19.6949275056       31.5910179311
  S        15.5295779342       22.0997810443       31.6078028588