     582
 i =       85, E =     -5927.9455882615
  S         9.1186350000        3.7931000000       24.3971628002
  S         4.2873550000       12.2247000000       24.3971628002
  S         1.6711850000        7.0096000000       30.5186628002
  S         6.5024950000        2.5752000000       30.5186628002
  S         1.6711850000        2.5752000000       22.0200628002
  S         6.5024950000        7.0096000000       22.0200628002
  S         6.9034950000        0.5766000000       30.5186628002
  S         1.2701850000        9.0082000000       30.5186628002
  S         6.9034950000        9.0082000000       22.0200628002
  S         1.2701850000        0.5766000000       22.0200628002
  S         3.8863250000       10.2261000000       24.3971628002
  S         9.5196350000        5.7917000000       24.3971628002
  S         7.5645550000        3.4444300000       23.1084628002
  S         5.8414350000       12.5733700000       23.1084628002
  S         3.2252950000        6.6609300000       29.2299528002
  S         4.9483850000        2.9238700000       29.2299528002
  S         3.2252950000        2.9238700000       23.3087528001
  S         4.9483850000        6.6609300000       23.3087528001
  S         8.4575750000        0.2279300000       29.2299528002
  S        10.1806950000        9.3568700000       29.2299528002
  S         8.4575750000        9.3568700000       23.3087528001
  S        10.1806950000        0.2279300000       23.3087528001
  S         2.3322450000        9.8774300000       23.1084628002
  S         0.6091250000        6.1403700000       23.1084628002
  S         8.3684250000        2.7953400000       21.3420428002
  S         5.0375350000        0.3564600000       21.3420428002
  S         2.4213950000        6.0118400000       27.4635328002
  S         5.7522850000        3.5729600000       27.4635328002
  S         2.4213950000        3.5729600000       25.0751828001
  S         5.7522850000        6.0118400000       25.0751828001
  S         7.6537050000       12.4448400000       27.4635328002
  S         0.5199750000       10.0059600000       27.4635328002
  S         7.6537050000       10.0059600000       25.0751828001
  S         0.5199750000       12.4448400000       25.0751828001
  S         3.1361450000        9.2283400000       21.3420428002
  S        10.2698450000        6.7894600000       21.3420428002
  S         8.3873850000        4.3719400000       20.0384028001
  S         5.0186050000       11.6458600000       20.0384028001
  S         2.4024650000        7.5884400000       26.1599128001
  S         5.7712150000        1.9963600000       26.1599128001
  S         2.4024650000        1.9963600000       26.3788028002
  S         5.7712150000        7.5884400000       26.3788028002
  S         7.6347450000        1.1554400000       26.1599128001
  S         0.5389350000        8.4293600000       26.1599128001
  S         7.6347450000        8.4293600000       26.3788028002
  S         0.5389350000        1.1554400000       26.3788028002
  S         3.1550750000       10.8049400000       20.0384028001
  S        10.2509150000        5.2128600000       20.0384028001
  S         9.1186350000       16.6591000000       24.3971628002
  S         4.2873550000       25.0907000000       24.3971628002
  S         1.6711850000       19.8756000000       30.5186628002
  S         6.5024950000       15.4412000000       30.5186628002
  S         1.6711850000       15.4412000000       22.0200628002
  S         6.5024950000       19.8756000000       22.0200628002
  S         6.9034950000       13.4426000000       30.5186628002
  S         1.2701850000       21.8742000000       30.5186628002
  S         6.9034950000       21.8742000000       22.0200628002
  S         1.2701850000       13.4426000000       22.0200628002
  S         3.8863250000       23.0921000000       24.3971628002
  S         9.5196350000       18.6577000000       24.3971628002
  S         7.5645550000       16.3104300000       23.1084628002
  S         5.8414350000       25.4393700000       23.1084628002
  S         3.2252950000       19.5269300000       29.2299528002
  S         4.9483850000       15.7898700000       29.2299528002
  S         3.2252950000       15.7898700000       23.3087528001
  S         4.9483850000       19.5269300000       23.3087528001
  S         8.4575750000       13.0939300000       29.2299528002
  S        10.1806950000       22.2228700000       29.2299528002
  S         8.4575750000       22.2228700000       23.3087528001
  S        10.1806950000       13.0939300000       23.3087528001
  S         2.3322450000       22.7434300000       23.1084628002
  S         0.6091250000       19.0063700000       23.1084628002
  S         8.3684250000       15.6613400000       21.3420428002
  S         5.0375350000       13.2224600000       21.3420428002
  S         2.4213950000       18.8778400000       27.4635328002
  S         5.7522850000       16.4389600000       27.4635328002
  S         2.4213950000       16.4389600000       25.0751828001
  S         5.7522850000       18.8778400000       25.0751828001
  S         7.6537050000       25.3108400000       27.4635328002
  S         0.5199750000       22.8719600000       27.4635328002
  S         7.6537050000       22.8719600000       25.0751828001
  S         0.5199750000       25.3108400000       25.0751828001
  S         3.1361450000       22.0943400000       21.3420428002
  S        10.2698450000       19.6554600000       21.3420428002
  S         8.3873850000       17.2379400000       20.0384028001
  S         5.0186050000       24.5118600000       20.0384028001
  S         2.4024650000       20.4544400000       26.1599128001
  S         5.7712150000       14.8623600000       26.1599128001
  S         2.4024650000       14.8623600000       26.3788028002
  S         5.7712150000       20.4544400000       26.3788028002
  S         7.6347450000       14.0214400000       26.1599128001
  S         0.5389350000       21.2953600000       26.1599128001
  S         7.6347450000       21.2953600000       26.3788028002
  S         0.5389350000       14.0214400000       26.3788028002
  S         3.1550750000       23.6709400000       20.0384028001
  S        10.2509150000       18.0788600000       20.0384028001
  S        19.5832250000        3.7931000000       24.3971628002
  S        14.7519450000       12.2247000000       24.3971628002
  S        12.1358050000        7.0096000000       30.5186628002
  S        16.9670850000        2.5752000000       30.5186628002
  S        12.1358050000        2.5752000000       22.0200628002
  S        16.9670850000        7.0096000000       22.0200628002
  S        17.3680850000        0.5766000000       30.5186628002
  S        11.7347750000        9.0082000000       30.5186628002
  S        17.3680850000        9.0082000000       22.0200628002
  S        11.7347750000        0.5766000000       22.0200628002
  S        14.3509450000       10.2261000000       24.3971628002
  S        19.9842550000        5.7917000000       24.3971628002
  S        18.0291450000        3.4444300000       23.1084628002
  S        16.3060250000       12.5733700000       23.1084628002
  S        13.6898850000        6.6609300000       29.2299528002
  S        15.4130050000        2.9238700000       29.2299528002
  S        13.6898850000        2.9238700000       23.3087528001
  S        15.4130050000        6.6609300000       23.3087528001
  S        18.9221950000        0.2279300000       29.2299528002
  S        20.6452850000        9.3568700000       29.2299528002
  S        18.9221950000        9.3568700000       23.3087528001
  S        20.6452850000        0.2279300000       23.3087528001
  S        12.7968350000        9.8774300000       23.1084628002
  S        11.0737450000        6.1403700000       23.1084628002
  S        18.8330450000        2.7953400000       21.3420428002
  S        15.5021550000        0.3564600000       21.3420428002
  S        12.8859850000        6.0118400000       27.4635328002
  S        16.2168750000        3.5729600000       27.4635328002
  S        12.8859850000        3.5729600000       25.0751828001
  S        16.2168750000        6.0118400000       25.0751828001
  S        18.1182950000       12.4448400000       27.4635328002
  S        10.9845950000       10.0059600000       27.4635328002
  S        18.1182950000       10.0059600000       25.0751828001
  S        10.9845950000       12.4448400000       25.0751828001
  S        13.6007350000        9.2283400000       21.3420428002
  S        20.7344350000        6.7894600000       21.3420428002
  S        18.8519750000        4.3719400000       20.0384028001
  S        15.4831950000       11.6458600000       20.0384028001
  S        12.8670550000        7.5884400000       26.1599128001
  S        16.2358350000        1.9963600000       26.1599128001
  S        12.8670550000        1.9963600000       26.3788028002
  S        16.2358350000        7.5884400000       26.3788028002
  S        18.0993650000        1.1554400000       26.1599128001
  S        11.0035250000        8.4293600000       26.1599128001
  S        18.0993650000        8.4293600000       26.3788028002
  S        11.0035250000        1.1554400000       26.3788028002
  S        13.6196650000       10.8049400000       20.0384028001
  S        20.7155050000        5.2128600000       20.0384028001
  S        19.5832250000       16.6591000000       24.3971628002
  S        14.7519450000       25.0907000000       24.3971628002
  S        12.1358050000       19.8756000000       30.5186628002
  S        16.9670850000       15.4412000000       30.5186628002
  S        12.1358050000       15.4412000000       22.0200628002
  S        16.9670850000       19.8756000000       22.0200628002
  S        17.3680850000       13.4426000000       30.5186628002
  S        11.7347750000       21.8742000000       30.5186628002
  S        17.3680850000       21.8742000000       22.0200628002
  S        11.7347750000       13.4426000000       22.0200628002
  S        14.3509450000       23.0921000000       24.3971628002
  S        19.9842550000       18.6577000000       24.3971628002
  S        18.0291450000       16.3104300000       23.1084628002
  S        16.3060250000       25.4393700000       23.1084628002
  S        13.6898850000       19.5269300000       29.2299528002
  S        15.4130050000       15.7898700000       29.2299528002
  S        13.6898850000       15.7898700000       23.3087528001
  S        15.4130050000       19.5269300000       23.3087528001
  S        18.9221950000       13.0939300000       29.2299528002
  S        20.6452850000       22.2228700000       29.2299528002
  S        18.9221950000       22.2228700000       23.3087528001
  S        20.6452850000       13.0939300000       23.3087528001
  S        12.7968350000       22.7434300000       23.1084628002
  S        11.0737450000       19.0063700000       23.1084628002
  S        18.8330450000       15.6613400000       21.3420428002
  S        15.5021550000       13.2224600000       21.3420428002
  S        12.8859850000       18.8778400000       27.4635328002
  S        16.2168750000       16.4389600000       27.4635328002
  S        12.8859850000       16.4389600000       25.0751828001
  S        16.2168750000       18.8778400000       25.0751828001
  S        18.1182950000       25.3108400000       27.4635328002
  S        10.9845950000       22.8719600000       27.4635328002
  S        18.1182950000       22.8719600000       25.0751828001
  S        10.9845950000       25.3108400000       25.0751828001
  S        13.6007350000       22.0943400000       21.3420428002
  S        20.7344350000       19.6554600000       21.3420428002
  S        18.8519750000       17.2379400000       20.0384028001
  S        15.4831950000       24.5118600000       20.0384028001
  S        12.8670550000       20.4544400000       26.1599128001
  S        16.2358350000       14.8623600000       26.1599128001
  S        12.8670550000       14.8623600000       26.3788028002
  S        16.2358350000       20.4544400000       26.3788028002
  S        18.0993650000       14.0214400000       26.1599128001
  S        11.0035250000       21.2953600000       26.1599128001
  S        18.0993650000       21.2953600000       26.3788028002
  S        11.0035250000       14.0214400000       26.3788028002
  S        13.6196650000       23.6709400000       20.0384028001
  S        20.7155050000       18.0788600000       20.0384028001
  S        30.0478450000        3.7931000000       24.3971628002
  S        25.2165350000       12.2247000000       24.3971628002
  S        22.6003950000        7.0096000000       30.5186628002
  S        27.4316750000        2.5752000000       30.5186628002
  S        22.6003950000        2.5752000000       22.0200628002
  S        27.4316750000        7.0096000000       22.0200628002
  S        27.8327050000        0.5766000000       30.5186628002
  S        22.1993950000        9.0082000000       30.5186628002
  S        27.8327050000        9.0082000000       22.0200628002
  S        22.1993950000        0.5766000000       22.0200628002
  S        24.8155350000       10.2261000000       24.3971628002
  S        30.4488450000        5.7917000000       24.3971628002
  S        28.4937350000        3.4444300000       23.1084628002
  S        26.7706450000       12.5733700000       23.1084628002
  S        24.1544750000        6.6609300000       29.2299528002
  S        25.8775950000        2.9238700000       29.2299528002
  S        24.1544750000        2.9238700000       23.3087528001
  S        25.8775950000        6.6609300000       23.3087528001
  S        29.3867850000        0.2279300000       29.2299528002
  S        31.1099050000        9.3568700000       29.2299528002
  S        29.3867850000        9.3568700000       23.3087528001
  S        31.1099050000        0.2279300000       23.3087528001
  S        23.2614550000        9.8774300000       23.1084628002
  S        21.5383350000        6.1403700000       23.1084628002
  S        29.2976350000        2.7953400000       21.3420428002
  S        25.9667450000        0.3564600000       21.3420428002
  S        23.3506050000        6.0118400000       27.4635328002
  S        26.6814950000        3.5729600000       27.4635328002
  S        23.3506050000        3.5729600000       25.0751828001
  S        26.6814950000        6.0118400000       25.0751828001
  S        28.5828850000       12.4448400000       27.4635328002
  S        21.4491850000       10.0059600000       27.4635328002
  S        28.5828850000       10.0059600000       25.0751828001
  S        21.4491850000       12.4448400000       25.0751828001
  S        24.0653250000        9.2283400000       21.3420428002
  S        31.1990550000        6.7894600000       21.3420428002
  S        29.3165650000        4.3719400000       20.0384028001
  S        25.9478150000       11.6458600000       20.0384028001
  S        23.3316450000        7.5884400000       26.1599128001
  S        26.7004250000        1.9963600000       26.1599128001
  S        23.3316450000        1.9963600000       26.3788028002
  S        26.7004250000        7.5884400000       26.3788028002
  S        28.5639550000        1.1554400000       26.1599128001
  S        21.4681150000        8.4293600000       26.1599128001
  S        28.5639550000        8.4293600000       26.3788028002
  S        21.4681150000        1.1554400000       26.3788028002
  S        24.0842850000       10.8049400000       20.0384028001
  S        31.1800950000        5.2128600000       20.0384028001
  S        30.0478450000       16.6591000000       24.3971628002
  S        25.2165350000       25.0907000000       24.3971628002
  S        22.6003950000       19.8756000000       30.5186628002
  S        27.4316750000       15.4412000000       30.5186628002
  S        22.6003950000       15.4412000000       22.0200628002
  S        27.4316750000       19.8756000000       22.0200628002
  S        27.8327050000       13.4426000000       30.5186628002
  S        22.1993950000       21.8742000000       30.5186628002
  S        27.8327050000       21.8742000000       22.0200628002
  S        22.1993950000       13.4426000000       22.0200628002
  S        24.8155350000       23.0921000000       24.3971628002
  S        30.4488450000       18.6577000000       24.3971628002
  S        28.4937350000       16.3104300000       23.1084628002
  S        26.7706450000       25.4393700000       23.1084628002
  S        24.1544750000       19.5269300000       29.2299528002
  S        25.8775950000       15.7898700000       29.2299528002
  S        24.1544750000       15.7898700000       23.3087528001
  S        25.8775950000       19.5269300000       23.3087528001
  S        29.3867850000       13.0939300000       29.2299528002
  S        31.1099050000       22.2228700000       29.2299528002
  S        29.3867850000       22.2228700000       23.3087528001
  S        31.1099050000       13.0939300000       23.3087528001
  S        23.2614550000       22.7434300000       23.1084628002
  S        21.5383350000       19.0063700000       23.1084628002
  S        29.2976350000       15.6613400000       21.3420428002
  S        25.9667450000       13.2224600000       21.3420428002
  S        23.3506050000       18.8778400000       27.4635328002
  S        26.6814950000       16.4389600000       27.4635328002
  S        23.3506050000       16.4389600000       25.0751828001
  S        26.6814950000       18.8778400000       25.0751828001
  S        28.5828850000       25.3108400000       27.4635328002
  S        21.4491850000       22.8719600000       27.4635328002
  S        28.5828850000       22.8719600000       25.0751828001
  S        21.4491850000       25.3108400000       25.0751828001
  S        24.0653250000       22.0943400000       21.3420428002
  S        31.1990550000       19.6554600000       21.3420428002
  S        29.3165650000       17.2379400000       20.0384028001
  S        25.9478150000       24.5118600000       20.0384028001
  S        23.3316450000       20.4544400000       26.1599128001
  S        26.7004250000       14.8623600000       26.1599128001
  S        23.3316450000       14.8623600000       26.3788028002
  S        26.7004250000       20.4544400000       26.3788028002
  S        28.5639550000       14.0214400000       26.1599128001
  S        21.4681150000       21.2953600000       26.1599128001
  S        28.5639550000       21.2953600000       26.3788028002
  S        21.4681150000       14.0214400000       26.3788028002
  S        24.0842850000       23.6709400000       20.0384028001
  S        31.1800950000       18.0788600000       20.0384028001
  S         1.9084186952        9.1763397714       35.1186005409
  S         6.5243970717        0.6309457999       34.6191898209
  S         9.1430873924        5.7930399808       28.1899052626
  S         4.3260272603       10.1935054379       28.2071226913
  S         9.4771040952       12.1272968192       37.9755568686
  S         4.3380467573        5.7504281748       37.2240137269
  S         3.9320165895       12.2164208283       28.2326963405
  S         9.5471487565        3.7721612732       28.1860681777
  S         3.9174075135        3.7297287650       37.1023139932
  S        11.0545632186       13.3022944030       37.2575689636
  S         6.9550162617        2.6465842565       34.7388660601
  S         1.4626233531        7.1905649089       34.7790263184
  S         3.3325927236        9.2503154000       36.6267420400
  S         4.9215989291        0.2018932508       35.8600576188
  S         7.5694806104        6.1789783089       29.4781038758
  S         5.8778168335        9.7650716396       29.5147028025
  S         7.7779857592        9.8249877445       35.6336143685
  S         5.9194050229        6.2285025407       35.9743106078
  S         2.3656775592       12.5949183796       29.5311069666
  S         0.6252994151        3.3814490052       29.5495572284
  S         2.3618013143        3.4168397461       35.7725167413
  S         0.6519678080       12.6423418709       35.8572609531
  S         8.5197367523        2.9344954822       36.0657776219
  S         9.9320472946        6.7098693705       35.6287476590
  S         2.3836085788        9.7289421963       38.4365672833
  S         6.4903582792       10.1966464041       38.4721541373
  S         8.3255021339        6.7754870485       31.3071518313
  S         5.0856129237        9.0710113388       31.2914549933
  S         8.4255455441        9.2926326779       33.7037822626
  S         5.1902754312        6.9540772953       34.1795523209
  S         3.1230370390        0.4042149669       31.3520348942
  S        10.3368965671        2.7236300244       31.2859179774
  S         3.1328033304        2.9143483684       33.9195566865
  S        10.2886939526        0.3677523797       33.8510274377
  S         7.7658995653        3.4581405392       37.9257548638
  S         0.2569388333        5.8423476569       37.6257196990
  S         2.0471793554        7.9757017471       39.5232135262
  S         5.6998803769        1.0239894810       39.0566210738
  S         8.3647914085        5.1481222388       32.5845926236
  S         5.0177355734       10.6174417549       32.6665810674
  S         8.4018724006       10.9412921157       32.5172473618
  S         5.0892198194        5.4290982358       32.7772130340
  S         3.1459722747       11.4850243324       32.6252463035
  S        10.2481584461        4.3026912300       32.6186120085
  S         3.1973737494        4.6070232613       32.7287239879
  S        10.2547761292       11.9263297833       32.5033525339
  S         7.6246737633        1.7887954638       39.1385899354
  S         0.1500636432        7.2780324657       39.1163846779
  S         1.6849707986       21.7871253909       34.6381405199
  S         6.4246608981       13.3196817319       34.4464042042
  S         9.0911359922       18.6844649897       28.2239871414
  S         4.2770332854       23.0796733545       28.2410759176
  S         9.0989256707       23.0564818635       36.9703601801
  S         4.4057851991       18.4730678926       37.0512995836
  S         3.8902633807       25.1047218986       28.2387204515
  S         9.5093377770       16.6656881881       28.2003298854
  S         3.9437572634       16.4546621214       36.9965330463
  S         9.5122923838       25.0804257770       36.9718778832
  S         6.9130813228       15.3087141341       34.5646537383
  S         1.2973767950       19.7598447491       34.7021262540
  S         3.2933497912       22.2124623056       35.8730649078
  S         4.9022022300       12.7751741656       35.7840553752
  S         7.5338557585       19.0550127471       29.5386316823
  S         5.8358587762       22.6724314196       29.5421726169
  S         7.5431085558       22.6695755275       35.6608213174
  S         5.9107684796       18.9067179987       35.7053927443
  S         2.3344702892       25.5167020873       29.5423983486
  S         0.6287201219       16.2261238882       29.5207356233
  S         2.4108965004       16.1130995150       35.6458342750
  S         0.6451653070       25.4744561632       35.7231988582
  S         8.4838581600       15.4405386363       35.9996555606
  S        10.1346416644       19.4752141779       36.0599978211
  S         2.6008990952       22.8489698878       37.7172869874
  S         5.6184337973       25.2205229547       37.6744063191
  S         8.3108890238       19.6505197448       31.3600174466
  S         5.0521610212       22.0590532883       31.3554347810
  S         8.3244406730       22.0429513469       33.8512660837
  S         5.0491266488       19.6267078097       33.9596141949
  S         3.1377219588       13.1298572121       31.3766662976
  S        10.3619702849       15.6324914933       31.2987828739
  S         3.2334672173       15.5318410730       33.8399060537
  S        10.3435541785       13.3989759552       33.9193603658
  S         7.9187683807       16.5373536670       37.6219666593
  S         0.5488074480       18.8232806795       37.8628705602
  S         2.5773016479       21.2652217665       39.0464090605
  S         6.0554757045       12.0254681091       39.4978336033
  S         8.3964575361       18.0301561052       32.6485669086
  S         5.0228295699       23.6566031841       32.6683016822
  S         8.3785892384       23.6356318674       32.5306919812
  S         5.0225074832       18.1175217428       32.5447662906
  S         3.1586774717       24.5439611258       32.6723866315
  S        10.2931488491       17.2250324982       32.6184976526
  S         3.1957766287       17.1515620659       32.5507909712
  S        10.2513003936       24.5049733703       32.5327501056
  S         6.8373511842       15.4263336848       38.9898045691
  S         0.6710216149       20.4547462115       39.1265572230
  S        12.0908939476        9.0674005732       34.7202684701
  S        16.8930442636        0.5141225656       34.7585259312
  S        19.5777582381        5.8007213458       28.2222425668
  S        14.7707382661       10.2227919036       28.2041730549
  S        19.5874858657       10.2086812619       36.9587158082
  S        14.6368163361        5.8520705788       37.0854049929
  S        14.3760412379       12.2463090492       28.2210515682
  S        19.9773110057        3.7786026958       28.2154486813
  S        14.2416213230        3.8236966273       37.0767579184
  S        19.9764442469       12.2371033973       36.9766412812
  S        17.2878556834        2.5355986401       34.6098313940
  S        11.7096774597        7.0340856660       34.6281094382
  S        13.5599262582        9.3932842143       36.1460607353
  S        15.3809759517        0.2109066426       36.1418653646
  S        18.0148124890        6.1912885082       29.5237646552
  S        16.3444775830        9.8141200880       29.4895093667
  S        18.0487252057        9.8094363999       35.6320346405
  S        16.2119596284        6.2656980611       35.8057769689
  S        12.8117931165       12.6366721227       29.5192739139
  S        11.1117026514        3.3754010020       29.4848054547
  S        12.7114850625        3.4222332392       35.7420359479
  S        11.6527665977       12.6001194943       35.4733961484
  S        18.9330956881        3.0049419556       35.7779819983
  S        20.6461239029        6.6340384044       36.0994590172
  S        12.6281708673       10.0474656274       37.8795834732
  S        15.9703621912       12.2652286293       37.4796142929
  S        18.7928532682        6.8175887155       31.3340799772
  S        15.5843076288        9.1353328746       31.2868600562
  S        18.8483726480        9.2139492109       33.8196329020
  S        15.4730124875        6.8605357787       33.9660653255
  S        13.5876209673        0.4097103187       31.3454116911
  S        20.7651743722        2.7625741695       31.3286922360
  S        13.5263925926        2.7912224819       33.9466089755
  S        20.7696555240        0.4002608391       33.9087070528
  S        18.2979114394        3.7241217958       37.6118212039
  S        10.2673687186        6.1708053221       37.5875072891
  S        12.1977286580        8.4850696199       39.1608494527
  S        16.3816825195        1.4022167634       39.1590101708
  S        18.8570264890        5.2290625991       32.6564961282
  S        15.4869100751       10.6935574088       32.6462060457
  S        18.8853202442       10.8224953001       32.5180019768
  S        15.4754004581        5.2519425418       32.6605560626
  S        13.5991464157       11.5275067475       32.5960485082
  S        20.7329734971        4.3651548378       32.6360070349
  S        13.6059033108        4.3793885170       32.6207320882
  S        20.7519897096       11.7043397311       32.5374270022
  S        18.2919664560        2.1925064565       39.0030355272
  S        10.2423106457        7.8797637763       38.7818418348
  S        12.0721561348       21.8154561070       34.5777071623
  S        17.0582952627       13.5391943360       34.5388367039
  S        19.5921008032       18.6757774258       28.2136203493
  S        14.7343115401       23.0827213071       28.2284658303
  S        19.5725956393       23.0882782858       37.0224333504
  S        14.7705231426       18.7037031878       37.0276182915
  S        14.3444719793       25.1069623782       28.2321573053
  S        19.9866277372       16.6524703247       28.2106023618
  S        14.3360862171       16.6821571553       37.0238662656
  S        19.9890916394       25.1136219211       37.0283229166
  S        17.4453741231       15.5556239352       34.7630734792
  S        11.6717622326       19.7936042808       34.7067183015
  S        13.7010595961       22.2727302457       35.7742937654
  S        15.3837538421       13.0447748690       35.6536109228
  S        18.0338245041       19.0769352506       29.5166768680
  S        16.2975612864       22.6764660708       29.5242275195
  S        18.0176872025       22.7004376394       35.7145982210
  S        16.3287554199       19.0885077341       35.7219917591
  S        12.7926160115       25.5125622819       29.5425992297
  S        11.0944171587       16.2775685609       29.4758443487
  S        12.7848669410       16.3114632185       35.7087150672
  S        11.0676132422       25.4785758284       35.6649040868
  S        18.9212768726       15.8187500950       36.1927536325
  S        20.5976007382       19.4643471961       35.7317547157
  S        13.0429928736       22.9794584113       37.6055727109
  S        16.2103791762       25.4460702481       37.9740329835
  S        18.8168678158       19.6744094375       31.3349595923
  S        15.5198773888       22.0721921277       31.3428101226