 DBCSR| Multiplication driver                                               XSMM
 DBCSR| Multrec recursion limit                                              512
 DBCSR| Multiplication stack size                                           1000
 DBCSR| Maximum elements for images                                    UNLIMITED
 DBCSR| Multiplicative factor virtual images                                   1
 DBCSR| Multiplication size stacks                                             3
 DBCSR| Number of 3D layers                                               SINGLE
 DBCSR| Use MPI memory allocation                                              T
 DBCSR| Use RMA algorithm                                                      F
 DBCSR| Use Communication thread                                               T
 DBCSR| Communication thread load                                             87


  **** **** ******  **  PROGRAM STARTED AT               2023-06-07 13:47:13.015
 ***** ** ***  *** **   PROGRAM STARTED ON                            sebnode129
 **    ****   ******    PROGRAM STARTED BY                                luehrs
 ***** **    ** ** **   PROGRAM PROCESS ID                               1059520
  **** **  *******  **  PROGRAM STARTED IN /home/luehrs/PhD/Li-S_paper/Li-S-Surf
                                           ace_Reaction/Second_Lithiation_of_S8_
                                           Surface/Second_Lithiation_around_S8/S
                                           econd_Lithiation_L2/Second_Lithiation
                                           _parallel/5.S8_p

 CP2K| version string:                    CP2K version 7.0 (Development Version)
 CP2K| source code revision number:                                             
 CP2K| cp2kflags: libint fftw3 libxc parallel mpi3 scalapack xsmm libderiv_max_a
 CP2K|            m1=8 libint_max_am=9 max_contr=4
 CP2K| is freely available from                            https://www.cp2k.org/
 CP2K| Program compiled at                         Sun Jun 24 14:37:16 CEST 2018
 CP2K| Program compiled on                                            sebstorage
 CP2K| Program compiled for                                Linux-x86-64-gfortran
 CP2K| Data directory path    /home/brehm/Software_Batchnode/2018/Source/cp2k_18
 CP2K| Input file name                                                input5.inp

 GLOBAL| Force Environment number                                              1
 GLOBAL| Basis set file name                                      ./BASIS_MOLOPT
 GLOBAL| Potential file name                                    ./GTH_POTENTIALS
 GLOBAL| MM Potential file name                                     MM_POTENTIAL
 GLOBAL| Coordinate file name             ./Second_lithiation_S8_5.p_relaxed.xyz
 GLOBAL| Method name                                                        CP2K
 GLOBAL| Project name                                                   Li_react
 GLOBAL| Preferred FFT library                                             FFTW3
 GLOBAL| Preferred diagonalization lib.                                       SL
 GLOBAL| Run type                                                        GEO_OPT
 GLOBAL| All-to-all communication in single precision                          F
 GLOBAL| FFTs using library dependent lengths                                  F
 GLOBAL| Global print level                                                  LOW
 GLOBAL| Total number of message passing processes                            16
 GLOBAL| Number of threads for this process                                    1
 GLOBAL| This output is from process                                           0
 GLOBAL| CPU model name :  AMD EPYC 7513 32-Core Processor

 MEMORY| system memory details [Kb]
 MEMORY|                        rank 0           min           max       average
 MEMORY| MemTotal            131916392     131916392     131916392     131916392
 MEMORY| MemFree              91864760      91864760      91864760      91864760
 MEMORY| Buffers                285284        285284        285284        285284
 MEMORY| Cached                4303664       4303664       4303664       4303664
 MEMORY| Slab                  1771796       1771796       1771796       1771796
 MEMORY| SReclaimable           471368        471368        471368        471368
 MEMORY| MemLikelyFree        96925076      96925076      96925076      96925076


 GENERATE|  Preliminary Number of Bonds generated:                             0
 GENERATE|  Achieved consistency in connectivity generation.

 *******************************************************************************
 *******************************************************************************
 **                                                                           **
 **     #####                         ##              ##                      **
 **    ##   ##            ##          ##              ##                      **
 **   ##     ##                       ##            ######                    **
 **   ##     ##  ##   ##  ##   #####  ##  ##   ####   ##    #####    #####    **
 **   ##     ##  ##   ##  ##  ##      ## ##   ##      ##   ##   ##  ##   ##   **
 **   ##  ## ##  ##   ##  ##  ##      ####     ###    ##   ######   ######    **
 **    ##  ###   ##   ##  ##  ##      ## ##      ##   ##   ##       ##        **
 **     #######   #####   ##   #####  ##  ##  ####    ##    #####   ##        **
 **           ##                                                    ##        **
 **                                                                           **
 **                                                ... make the atoms dance   **
 **                                                                           **
 **            Copyright (C) by CP2K developers group (2000 - 2018)           **
 **                                                                           **
 *******************************************************************************


 TOTAL NUMBERS AND MAXIMUM NUMBERS

  Total number of            - Atomic kinds:                                   2
                             - Atoms:                                        580
                             - Shell sets:                                   580
                             - Shells:                                      2896
                             - Primitive Cartesian functions:               3476
                             - Cartesian basis functions:                   8088
                             - Spherical basis functions:                   7512

  Maximum angular momentum of- Orbital basis functions:                        2
                             - Local part of the GTH pseudopotential:          6
                             - Non-local part of the GTH pseudopotential:      2


 SCF PARAMETERS         Density guess:                                   RESTART
                        --------------------------------------------------------
                        max_scf:                                              30
                        max_scf_history:                                       0
                        max_diis:                                              4
                        --------------------------------------------------------
                        eps_scf:                                        1.00E-06
                        eps_scf_history:                                0.00E+00
                        eps_diis:                                       1.00E-01
                        eps_eigval:                                     1.00E-05
                        --------------------------------------------------------
                        level_shift [a.u.]:                                 0.00
                        --------------------------------------------------------
                        Outer loop SCF in use 
                        No variables optimised in outer loop
                        eps_scf                                         1.00E-06
                        max_scf                                               25
                        DIIS optimization
                        DIIS buffer length                                     3
                        step_size                                       5.00E-01

 BFGS| Use rational function optimization for step estimation:                NO
 BFGS| Use model Hessian for initial guess:                                  YES
 BFGS| Restart Hessian:                                                       NO
 BFGS| Trust radius:                                                       0.472

 *******************************************************************************
 ***                     STARTING GEOMETRY OPTIMIZATION                      ***
 ***                                   BFGS                                  ***
 *******************************************************************************

 Number of electrons:                                                       3468
 Number of occupied orbitals:                                               1734
 Number of molecular orbitals:                                              1734

 Number of orbital functions:                                               7512
 Number of independent orbital functions:                                   7512

 Extrapolation method: initial_guess


 SCF WAVEFUNCTION OPTIMIZATION

  ----------------------------------- OT ---------------------------------------
  Minimizer      : DIIS                : direct inversion
                                         in the iterative subspace
                                         using   8 DIIS vectors
                                         safer DIIS on
  Preconditioner : FULL_KINETIC        : inversion of T + eS
  Precond_solver : DEFAULT
  stepsize       :    0.15000000                  energy_gap     :    0.00010000
  eps_taylor     :   0.10000E-15                  max_taylor     :             4
  ----------------------------------- OT ---------------------------------------

  Step     Update method      Time    Convergence         Total energy    Change
  ------------------------------------------------------------------------------
     1 OT DIIS     0.15E+00   17.9     0.00008695     -5912.6573263722 -5.91E+03
     2 OT DIIS     0.15E+00   17.4     0.00006308     -5912.6694732259 -1.21E-02
     3 OT DIIS     0.15E+00   17.2     0.00011917     -5912.6771181693 -7.64E-03
     4 OT DIIS     0.15E+00   16.8     0.00014772     -5912.6793461167 -2.23E-03
     5 OT DIIS     0.15E+00   17.0     0.00006667     -5912.6824677863 -3.12E-03
     6 OT DIIS     0.15E+00   17.3     0.00005373     -5912.6864939420 -4.03E-03
     7 OT DIIS     0.15E+00   17.3     0.00009988     -5912.6873317083 -8.38E-04
     8 OT DIIS     0.15E+00   16.9     0.00003849     -5912.6889479273 -1.62E-03
     9 OT DIIS     0.15E+00   15.5     0.00002514     -5912.6901231626 -1.18E-03
    10 OT DIIS     0.15E+00   16.0     0.00003092     -5912.6907600362 -6.37E-04
    11 OT DIIS     0.15E+00   16.7     0.00004041     -5912.6909869542 -2.27E-04
    12 OT DIIS     0.15E+00   16.8     0.00002427     -5912.6912582466 -2.71E-04
    13 OT DIIS     0.15E+00   16.1     0.00002837     -5912.6916300324 -3.72E-04
    14 OT DIIS     0.15E+00   16.4     0.00002947     -5912.6917749070 -1.45E-04
    15 OT DIIS     0.15E+00   16.5     0.00001712     -5912.6919299398 -1.55E-04
    16 OT DIIS     0.15E+00   16.6     0.00003427     -5912.6920305135 -1.01E-04
    17 OT DIIS     0.15E+00   16.8     0.00002152     -5912.6921415969 -1.11E-04
    18 OT DIIS     0.15E+00   16.4     0.00001574     -5912.6922594705 -1.18E-04
    19 OT DIIS     0.15E+00   16.6     0.00002042     -5912.6923269096 -6.74E-05
    20 OT DIIS     0.15E+00   17.1     0.00002231     -5912.6923287401 -1.83E-06
    21 OT DIIS     0.15E+00   16.4     0.00001774     -5912.6923947772 -6.60E-05
    22 OT DIIS     0.15E+00   17.1     0.00001409     -5912.6924436857 -4.89E-05
    23 OT DIIS     0.15E+00   17.3     0.00001709     -5912.6924492894 -5.60E-06
    24 OT DIIS     0.15E+00   17.3     0.00000879     -5912.6925053620 -5.61E-05
    25 OT DIIS     0.15E+00   17.6     0.00001379     -5912.6925335776 -2.82E-05
    26 OT DIIS     0.15E+00   17.7     0.00001104     -5912.6925565837 -2.30E-05
    27 OT DIIS     0.15E+00   17.6     0.00000818     -5912.6925994058 -4.28E-05
    28 OT DIIS     0.15E+00   17.3     0.00001191     -5912.6926203663 -2.10E-05
    29 OT DIIS     0.15E+00   17.2     0.00001186     -5912.6926448404 -2.45E-05
    30 OT DIIS     0.15E+00   17.2     0.00001339     -5912.6926647255 -1.99E-05

  Leaving inner SCF loop after reaching    30 steps.


  Electronic density on regular grids:      -3468.0000002295       -0.0000002295
  Core density on regular grids:             3467.9999999952       -0.0000000048
  Total charge density on r-space grids:       -0.0000002342
  Total charge density g-space grids:          -0.0000002333

  Overlap energy of the core charge distribution:               0.00000032801693
  Self energy of the core charge distribution:             -13952.81139369569428
  Core Hamiltonian energy:                                   3143.44995901523271
  Hartree energy:                                            6202.76230640176527
  Exchange-correlation energy:                              -1303.63496631077805
  Dispersion energy:                                           -2.45857046403907

  Total energy:                                             -5912.69266472549680

  outer SCF iter =    1 RMS gradient =   0.13E-04 energy =      -5912.6926647255

  ----------------------------------- OT ---------------------------------------
  Minimizer      : DIIS                : direct inversion
                                         in the iterative subspace
                                         using   8 DIIS vectors
                                         safer DIIS on
  Preconditioner : FULL_KINETIC        : inversion of T + eS
  Precond_solver : DEFAULT
  stepsize       :    0.15000000                  energy_gap     :    0.00010000
  eps_taylor     :   0.10000E-15                  max_taylor     :             4
  ----------------------------------- OT ---------------------------------------

  Step     Update method      Time    Convergence         Total energy    Change
  ------------------------------------------------------------------------------
     1 OT DIIS     0.15E+00   38.5     0.00000898     -5912.6926931965 -2.85E-05
     2 OT DIIS     0.15E+00   17.4     0.00007458     -5912.6922708701  4.22E-04
     3 OT DIIS     0.15E+00   17.1     0.00001139     -5912.6927252156 -4.54E-04
     4 OT DIIS     0.15E+00   16.9     0.00000465     -5912.6927517370 -2.65E-05
     5 OT DIIS     0.15E+00   16.9     0.00000733     -5912.6927666917 -1.50E-05
     6 OT DIIS     0.15E+00   17.1     0.00000685     -5912.6927991360 -3.24E-05
     7 OT DIIS     0.15E+00   16.5     0.00000449     -5912.6929592336 -1.60E-04
     8 OT DIIS     0.15E+00   16.4     0.00000305     -5912.6930121729 -5.29E-05
     9 OT DIIS     0.15E+00   16.5     0.00000496     -5912.6930211176 -8.94E-06
    10 OT DIIS     0.15E+00   17.0     0.00000354     -5912.6930317183 -1.06E-05
    11 OT DIIS     0.15E+00   17.3     0.00000187     -5912.6930443820 -1.27E-05
    12 OT DIIS     0.15E+00   16.6     0.00000470     -5912.6930521373 -7.76E-06
    13 OT DIIS     0.15E+00   16.3     0.00000297     -5912.6930640243 -1.19E-05
    14 OT DIIS     0.15E+00   16.1     0.00000270     -5912.6930719023 -7.88E-06
    15 OT DIIS     0.15E+00   16.4     0.00000205     -5912.6930740755 -2.17E-06
    16 OT DIIS     0.15E+00   16.6     0.00000149     -5912.6930808353 -6.76E-06
    17 OT DIIS     0.15E+00   16.7     0.00000267     -5912.6930835317 -2.70E-06
    18 OT DIIS     0.15E+00   16.8     0.00000141     -5912.6930866223 -3.09E-06
    19 OT DIIS     0.15E+00   16.6     0.00000239     -5912.6930897204 -3.10E-06
    20 OT DIIS     0.15E+00   16.9     0.00000148     -5912.6930951322 -5.41E-06
    21 OT DIIS     0.15E+00   16.5     0.00000117     -5912.6930994465 -4.31E-06
    22 OT DIIS     0.15E+00   16.7     0.00000122     -5912.6931036592 -4.21E-06
    23 OT DIIS     0.15E+00   17.1     0.00000147     -5912.6931066485 -2.99E-06
    24 OT DIIS     0.15E+00   18.1     0.00000113     -5912.6931080834 -1.43E-06
    25 OT DIIS     0.15E+00   17.2     0.00000126     -5912.6931137651 -5.68E-06
    26 OT DIIS     0.15E+00   16.9     0.00000177     -5912.6931172873 -3.52E-06
    27 OT DIIS     0.15E+00   16.5     0.00000130     -5912.6931211205 -3.83E-06
    28 OT DIIS     0.15E+00   16.5     0.00000130     -5912.6931235251 -2.40E-06
    29 OT DIIS     0.15E+00   16.7     0.00000099     -5912.6931280876 -4.56E-06

  *** SCF run converged in    29 steps ***


  Electronic density on regular grids:      -3468.0000000014       -0.0000000014
  Core density on regular grids:             3467.9999999952       -0.0000000048
  Total charge density on r-space grids:       -0.0000000062
  Total charge density g-space grids:          -0.0000000052

  Overlap energy of the core charge distribution:               0.00000032801693
  Self energy of the core charge distribution:             -13952.81139369569428
  Core Hamiltonian energy:                                   3143.43930577526498
  Hartree energy:                                            6202.76717564075625
  Exchange-correlation energy:                              -1303.62964567191875
  Dispersion energy:                                           -2.45857046403907

  Total energy:                                             -5912.69312808761424

  outer SCF iter =    2 RMS gradient =   0.99E-06 energy =      -5912.6931280876
  outer SCF loop converged in   2 iterations or   59 steps


 ENERGY| Total FORCE_EVAL ( QS ) energy (a.u.):            -5912.693131980237013


 --------  Informations at step =     0 ------------
  Optimization Method        =                 BFGS
  Total Energy               =     -5912.6931319802
  Used time                  =             1030.681
 ---------------------------------------------------

 --------------------------
 OPTIMIZATION STEP:      1
 --------------------------

 Number of electrons:                                                       3468
 Number of occupied orbitals:                                               1734
 Number of molecular orbitals:                                              1734

 Number of orbital functions:                                               7512
 Number of independent orbital functions:                                   7512

 Extrapolation method: ASPC


 SCF WAVEFUNCTION OPTIMIZATION

  ----------------------------------- OT ---------------------------------------
  Minimizer      : DIIS                : direct inversion
                                         in the iterative subspace
                                         using   8 DIIS vectors
                                         safer DIIS on
  Preconditioner : FULL_KINETIC        : inversion of T + eS
  Precond_solver : DEFAULT
  stepsize       :    0.15000000                  energy_gap     :    0.00010000
  eps_taylor     :   0.10000E-15                  max_taylor     :             4
  ----------------------------------- OT ---------------------------------------

  Step     Update method      Time    Convergence         Total energy    Change
  ------------------------------------------------------------------------------
     1 OT DIIS     0.15E+00   17.1     0.00001105     -5912.6936730668 -5.91E+03
     2 OT DIIS     0.15E+00   16.1     0.00000823     -5912.6938727742 -2.00E-04
     3 OT DIIS     0.15E+00   16.6     0.00002365     -5912.6939867585 -1.14E-04
     4 OT DIIS     0.15E+00   16.6     0.00001489     -5912.6940562107 -6.95E-05
     5 OT DIIS     0.15E+00   16.4     0.00000743     -5912.6941071498 -5.09E-05
     6 OT DIIS     0.15E+00   16.5     0.00000695     -5912.6941819442 -7.48E-05
     7 OT DIIS     0.15E+00   16.8     0.00001250     -5912.6941994972 -1.76E-05
     8 OT DIIS     0.15E+00   17.1     0.00000523     -5912.6942287552 -2.93E-05
     9 OT DIIS     0.15E+00   17.1     0.00000323     -5912.6942559783 -2.72E-05
    10 OT DIIS     0.15E+00   17.0     0.00000437     -5912.6942738992 -1.79E-05
    11 OT DIIS     0.15E+00   19.4     0.00000587     -5912.6942769958 -3.10E-06
    12 OT DIIS     0.15E+00   21.7     0.00000278     -5912.6942868128 -9.82E-06
    13 OT DIIS     0.15E+00   21.3     0.00000419     -5912.6942968659 -1.01E-05
    14 OT DIIS     0.15E+00   21.7     0.00000335     -5912.6943015447 -4.68E-06
    15 OT DIIS     0.15E+00   21.4     0.00000240     -5912.6943061318 -4.59E-06
    16 OT DIIS     0.15E+00   21.8     0.00000380     -5912.6943112779 -5.15E-06
    17 OT DIIS     0.15E+00   21.5     0.00000330     -5912.6943133013 -2.02E-06
    18 OT DIIS     0.15E+00   21.6     0.00000180     -5912.6943167831 -3.48E-06
    19 OT DIIS     0.15E+00   21.3     0.00000191     -5912.6943204575 -3.67E-06
    20 OT DIIS     0.15E+00   21.7     0.00000420     -5912.6943212186 -7.61E-07
    21 OT DIIS     0.15E+00   21.5     0.00000194     -5912.6943245342 -3.32E-06
    22 OT DIIS     0.15E+00   21.6     0.00000272     -5912.6943248960 -3.62E-07
    23 OT DIIS     0.15E+00   21.9     0.00000271     -5912.6943246516  2.44E-07
    24 OT DIIS     0.15E+00   22.1     0.00000185     -5912.6943268639 -2.21E-06
    25 OT DIIS     0.15E+00   21.9     0.00000228     -5912.6943270233 -1.59E-07
    26 OT DIIS     0.15E+00   21.8     0.00000221     -5912.6943277662 -7.43E-07
    27 OT DIIS     0.15E+00   21.3     0.00000128     -5912.6943281658 -4.00E-07
    28 OT DIIS     0.15E+00   21.5     0.00000109     -5912.6943287215 -5.56E-07
    29 OT DIIS     0.15E+00   21.9     0.00000151     -5912.6943295783 -8.57E-07
    30 OT DIIS     0.15E+00   22.2     0.00000117     -5912.6943300012 -4.23E-07

  Leaving inner SCF loop after reaching    30 steps.


  Electronic density on regular grids:      -3468.0000000015       -0.0000000015
  Core density on regular grids:             3467.9999999952       -0.0000000048
  Total charge density on r-space grids:       -0.0000000063
  Total charge density g-space grids:          -0.0000000054

  Overlap energy of the core charge distribution:               0.00000032770041
  Self energy of the core charge distribution:             -13952.81139369569428
  Core Hamiltonian energy:                                   3143.40987044050053
  Hartree energy:                                            6202.78742256175883
  Exchange-correlation energy:                              -1303.62160916229323
  Dispersion energy:                                           -2.45862047315022

  Total energy:                                             -5912.69433000117806

  outer SCF iter =    1 RMS gradient =   0.12E-05 energy =      -5912.6943300012

  ----------------------------------- OT ---------------------------------------
  Minimizer      : DIIS                : direct inversion
                                         in the iterative subspace
                                         using   8 DIIS vectors
                                         safer DIIS on
  Preconditioner : FULL_KINETIC        : inversion of T + eS
  Precond_solver : DEFAULT
  stepsize       :    0.15000000                  energy_gap     :    0.00010000
  eps_taylor     :   0.10000E-15                  max_taylor     :             4
  ----------------------------------- OT ---------------------------------------

  Step     Update method      Time    Convergence         Total energy    Change
  ------------------------------------------------------------------------------
     1 OT DIIS     0.15E+00   49.5     0.00000122     -5912.6943305684 -5.67E-07
     2 OT DIIS     0.15E+00   20.7     0.00000972     -5912.6943236167  6.95E-06
     3 OT DIIS     0.15E+00   21.0     0.00000146     -5912.6943314411 -7.82E-06
     4 OT DIIS     0.15E+00   21.6     0.00000069     -5912.6943319109 -4.70E-07

  *** SCF run converged in     4 steps ***


  Electronic density on regular grids:      -3468.0000000016       -0.0000000016
  Core density on regular grids:             3467.9999999952       -0.0000000048
  Total charge density on r-space grids:       -0.0000000063
  Total charge density g-space grids:          -0.0000000054

  Overlap energy of the core charge distribution:               0.00000032770041
  Self energy of the core charge distribution:             -13952.81139369569428
  Core Hamiltonian energy:                                   3143.41005133868384
  Hartree energy:                                            6202.78734521250681
  Exchange-correlation energy:                              -1303.62171462091828
  Dispersion energy:                                           -2.45862047315022

  Total energy:                                             -5912.69433191087319

  outer SCF iter =    2 RMS gradient =   0.69E-06 energy =      -5912.6943319109
  outer SCF loop converged in   2 iterations or   34 steps


 ENERGY| Total FORCE_EVAL ( QS ) energy (a.u.):            -5912.694332523179582


 --------  Informations at step =     1 ------------
  Optimization Method        =                 BFGS
  Total Energy               =     -5912.6943325232
  Real energy change         =        -0.0012005429
  Predicted change in energy =        -0.0007029317
  Scaling factor             =         0.0000000000
  Step size                  =         0.0714570048
  Trust radius               =         0.4724315332
  Decrease in energy         =                  YES
  Used time                  =              721.368

  Convergence check :
  Max. step size             =         0.0714570048
  Conv. limit for step size  =         0.0030000000
  Convergence in step size   =                   NO
  RMS step size              =         0.0026474234
  Conv. limit for RMS step   =         0.0015000000
  Convergence in RMS step    =                   NO
  Max. gradient              =         0.0064424853
  Conv. limit for gradients  =         0.0004500000
  Conv. for gradients        =                   NO
  RMS gradient               =         0.0002381200
  Conv. limit for RMS grad.  =         0.0003000000
  Conv. in RMS gradients     =                  YES
 ---------------------------------------------------

 --------------------------
 OPTIMIZATION STEP:      2
 --------------------------

 Number of electrons:                                                       3468
 Number of occupied orbitals:                                               1734
 Number of molecular orbitals:                                              1734

 Number of orbital functions:                                               7512
 Number of independent orbital functions:                                   7512

 Extrapolation method: ASPC


 SCF WAVEFUNCTION OPTIMIZATION

  ----------------------------------- OT ---------------------------------------
  Minimizer      : DIIS                : direct inversion
                                         in the iterative subspace
                                         using   8 DIIS vectors
                                         safer DIIS on
  Preconditioner : FULL_KINETIC        : inversion of T + eS
  Precond_solver : DEFAULT
  stepsize       :    0.15000000                  energy_gap     :    0.00010000
  eps_taylor     :   0.10000E-15                  max_taylor     :             4
  ----------------------------------- OT ---------------------------------------

  Step     Update method      Time    Convergence         Total energy    Change
  ------------------------------------------------------------------------------
     1 OT DIIS     0.15E+00   21.4     0.00001384     -5912.6947386464 -5.91E+03
     2 OT DIIS     0.15E+00   21.7     0.00002203     -5912.6950078332 -2.69E-04
     3 OT DIIS     0.15E+00   21.8     0.00003237     -5912.6949997969  8.04E-06
     4 OT DIIS     0.15E+00   22.2     0.00001302     -5912.6952642419 -2.64E-04
     5 OT DIIS     0.15E+00   22.5     0.00001118     -5912.6953345809 -7.03E-05
     6 OT DIIS     0.15E+00   22.6     0.00002270     -5912.6953532520 -1.87E-05
     7 OT DIIS     0.15E+00   22.6     0.00000559     -5912.6954684478 -1.15E-04
     8 OT DIIS     0.15E+00   22.2     0.00000458     -5912.6955264150 -5.80E-05
     9 OT DIIS     0.15E+00   22.5     0.00000515     -5912.6955577915 -3.14E-05
    10 OT DIIS     0.15E+00   22.6     0.00000990     -5912.6955705747 -1.28E-05
    11 OT DIIS     0.15E+00   22.5     0.00000403     -5912.6955844565 -1.39E-05
    12 OT DIIS     0.15E+00   22.5     0.00000506     -5912.6955994183 -1.50E-05
    13 OT DIIS     0.15E+00   22.1     0.00000448     -5912.6956074740 -8.06E-06
    14 OT DIIS     0.15E+00   22.4     0.00000239     -5912.6956231538 -1.57E-05
    15 OT DIIS     0.15E+00   22.4     0.00000351     -5912.6956337474 -1.06E-05
    16 OT DIIS     0.15E+00   22.1     0.00000352     -5912.6956399674 -6.22E-06
    17 OT DIIS     0.15E+00   21.8     0.00000249     -5912.6956465753 -6.61E-06
    18 OT DIIS     0.15E+00   21.0     0.00000389     -5912.6956506173 -4.04E-06
    19 OT DIIS     0.15E+00   21.6     0.00000225     -5912.6956560465 -5.43E-06
    20 OT DIIS     0.15E+00   22.1     0.00000403     -5912.6956598438 -3.80E-06
    21 OT DIIS     0.15E+00   22.1     0.00000242     -5912.6956626612 -2.82E-06
    22 OT DIIS     0.15E+00   22.3     0.00000370     -5912.6956654816 -2.82E-06
    23 OT DIIS     0.15E+00   21.6     0.00000189     -5912.6956667653 -1.28E-06
    24 OT DIIS     0.15E+00   21.8     0.00000238     -5912.6956689616 -2.20E-06
    25 OT DIIS     0.15E+00   21.9     0.00000304     -5912.6956690823 -1.21E-07
    26 OT DIIS     0.15E+00   21.8     0.00000178     -5912.6956707543 -1.67E-06
    27 OT DIIS     0.15E+00   22.1     0.00000265     -5912.6956711439 -3.90E-07
    28 OT DIIS     0.15E+00   21.9     0.00000159     -5912.6956714068 -2.63E-07
    29 OT DIIS     0.15E+00   21.8     0.00000206     -5912.6956725540 -1.15E-06
    30 OT DIIS     0.15E+00   21.8     0.00000145     -5912.6956726682 -1.14E-07

  Leaving inner SCF loop after reaching    30 steps.


  Electronic density on regular grids:      -3468.0000000012       -0.0000000012
  Core density on regular grids:             3467.9999999952       -0.0000000048
  Total charge density on r-space grids:       -0.0000000059
  Total charge density g-space grids:          -0.0000000050

  Overlap energy of the core charge distribution:               0.00000032712159
  Self energy of the core charge distribution:             -13952.81139369569428
  Core Hamiltonian energy:                                   3143.34198547315782
  Hartree energy:                                            6202.83493760378042
  Exchange-correlation energy:                              -1303.60257481721192
  Dispersion energy:                                           -2.45862755939734

  Total energy:                                             -5912.69567266824379

  outer SCF iter =    1 RMS gradient =   0.14E-05 energy =      -5912.6956726682

  ----------------------------------- OT ---------------------------------------
  Minimizer      : DIIS                : direct inversion
                                         in the iterative subspace
                                         using   8 DIIS vectors
                                         safer DIIS on
  Preconditioner : FULL_KINETIC        : inversion of T + eS
  Precond_solver : DEFAULT
  stepsize       :    0.15000000                  energy_gap     :    0.00010000
  eps_taylor     :   0.10000E-15                  max_taylor     :             4
  ----------------------------------- OT ---------------------------------------

  Step     Update method      Time    Convergence         Total energy    Change
  ------------------------------------------------------------------------------
     1 OT DIIS     0.15E+00   48.6     0.00000170     -5912.6956732213 -5.53E-07
     2 OT DIIS     0.15E+00   22.0     0.00001665     -5912.6956522794  2.09E-05
     3 OT DIIS     0.15E+00   22.0     0.00000097     -5912.6956745989 -2.23E-05

  *** SCF run converged in     3 steps ***


  Electronic density on regular grids:      -3468.0000000011       -0.0000000011
  Core density on regular grids:             3467.9999999952       -0.0000000048
  Total charge density on r-space grids:       -0.0000000059
  Total charge density g-space grids:          -0.0000000049

  Overlap energy of the core charge distribution:               0.00000032712159
  Self energy of the core charge distribution:             -13952.81139369569428
  Core Hamiltonian energy:                                   3143.34203279638223
  Hartree energy:                                            6202.83493487553642
  Exchange-correlation energy:                              -1303.60262134284858
  Dispersion energy:                                           -2.45862755939734

  Total energy:                                             -5912.69567459889913

  outer SCF iter =    2 RMS gradient =   0.97E-06 energy =      -5912.6956745989
  outer SCF loop converged in   2 iterations or   33 steps


 ENERGY| Total FORCE_EVAL ( QS ) energy (a.u.):            -5912.695674958585187


 --------  Informations at step =     2 ------------
  Optimization Method        =                 BFGS
  Total Energy               =     -5912.6956749586
  Real energy change         =        -0.0013424354
  Predicted change in energy =        -0.0010436590
  Scaling factor             =         0.0000000000
  Step size                  =         0.1603953217
  Trust radius               =         0.4724315332
  Decrease in energy         =                  YES
  Used time                  =              767.871

  Convergence check :
  Max. step size             =         0.1603953217
  Conv. limit for step size  =         0.0030000000
  Convergence in step size   =                   NO
  RMS step size              =         0.0058033812
  Conv. limit for RMS step   =         0.0015000000
  Convergence in RMS step    =                   NO
  Max. gradient              =         0.0023886425
  Conv. limit for gradients  =         0.0004500000
  Conv. for gradients        =                   NO
  RMS gradient               =         0.0001262550
  Conv. limit for RMS grad.  =         0.0003000000
  Conv. in RMS gradients     =                  YES
 ---------------------------------------------------

 --------------------------
 OPTIMIZATION STEP:      3
 --------------------------

 Number of electrons:                                                       3468
 Number of occupied orbitals:                                               1734
 Number of molecular orbitals:                                              1734

 Number of orbital functions:                                               7512
 Number of independent orbital functions:                                   7512

 Extrapolation method: ASPC


 SCF WAVEFUNCTION OPTIMIZATION

  ----------------------------------- OT ---------------------------------------
  Minimizer      : DIIS                : direct inversion
                                         in the iterative subspace
                                         using   8 DIIS vectors
                                         safer DIIS on
  Preconditioner : FULL_KINETIC        : inversion of T + eS
  Precond_solver : DEFAULT
  stepsize       :    0.15000000                  energy_gap     :    0.00010000
  eps_taylor     :   0.10000E-15                  max_taylor     :             4
  ----------------------------------- OT ---------------------------------------

  Step     Update method      Time    Convergence         Total energy    Change
  ------------------------------------------------------------------------------
     1 OT DIIS     0.15E+00   22.3     0.00002039     -5912.6939761986 -5.91E+03
     2 OT DIIS     0.15E+00   21.6     0.00002524     -5912.6946197211 -6.44E-04
     3 OT DIIS     0.15E+00   21.9     0.00005611     -5912.6945385609  8.12E-05
     4 OT DIIS     0.15E+00   21.7     0.00001483     -5912.6953135903 -7.75E-04
     5 OT DIIS     0.15E+00   21.7     0.00002574     -5912.6954100899 -9.65E-05
     6 OT DIIS     0.15E+00   21.6     0.00002293     -5912.6955102339 -1.00E-04
     7 OT DIIS     0.15E+00   21.2     0.00000870     -5912.6957050953 -1.95E-04
     8 OT DIIS     0.15E+00   21.3     0.00000676     -5912.6958272992 -1.22E-04
     9 OT DIIS     0.15E+00   21.3     0.00000695     -5912.6958909748 -6.37E-05
    10 OT DIIS     0.15E+00   21.2     0.00001357     -5912.6959220354 -3.11E-05
    11 OT DIIS     0.15E+00   21.2     0.00000691     -5912.6959451435 -2.31E-05
    12 OT DIIS     0.15E+00   21.7     0.00000543     -5912.6959705422 -2.54E-05
    13 OT DIIS     0.15E+00   21.2     0.00000823     -5912.6959838775 -1.33E-05
    14 OT DIIS     0.15E+00   21.9     0.00000371     -5912.6960065161 -2.26E-05
    15 OT DIIS     0.15E+00   22.1     0.00000389     -5912.6960192930 -1.28E-05
    16 OT DIIS     0.15E+00   22.1     0.00000723     -5912.6960236014 -4.31E-06
    17 OT DIIS     0.15E+00   22.2     0.00000308     -5912.6960355228 -1.19E-05
    18 OT DIIS     0.15E+00   22.1     0.00000444     -5912.6960403263 -4.80E-06
    19 OT DIIS     0.15E+00   22.1     0.00000370     -5912.6960444865 -4.16E-06
    20 OT DIIS     0.15E+00   21.4     0.00000618     -5912.6960470864 -2.60E-06
    21 OT DIIS     0.15E+00   20.5     0.00000293     -5912.6960514983 -4.41E-06
    22 OT DIIS     0.15E+00   21.7     0.00000469     -5912.6960537563 -2.26E-06
    23 OT DIIS     0.15E+00   22.5     0.00000285     -5912.6960542461 -4.90E-07
    24 OT DIIS     0.15E+00   22.2     0.00000245     -5912.6960560874 -1.84E-06
    25 OT DIIS     0.15E+00   22.1     0.00000432     -5912.6960569983 -9.11E-07
    26 OT DIIS     0.15E+00   22.2     0.00000208     -5912.6960579926 -9.94E-07
    27 OT DIIS     0.15E+00   22.2     0.00000233     -5912.6960586439 -6.51E-07
    28 OT DIIS     0.15E+00   22.3     0.00000179     -5912.6960590700 -4.26E-07
    29 OT DIIS     0.15E+00   22.2     0.00000230     -5912.6960601540 -1.08E-06
    30 OT DIIS     0.15E+00   22.1     0.00000155     -5912.6960605089 -3.55E-07

  Leaving inner SCF loop after reaching    30 steps.


  Electronic density on regular grids:      -3468.0000000011       -0.0000000011
  Core density on regular grids:             3467.9999999952       -0.0000000048
  Total charge density on r-space grids:       -0.0000000059
  Total charge density g-space grids:          -0.0000000049

  Overlap energy of the core charge distribution:               0.00000032697939
  Self energy of the core charge distribution:             -13952.81139369569428
  Core Hamiltonian energy:                                   3143.32098551769286
  Hartree energy:                                            6202.85050731618321
  Exchange-correlation energy:                              -1303.59760640164086
  Dispersion energy:                                           -2.45855357244940

  Total energy:                                             -5912.69606050892799

  outer SCF iter =    1 RMS gradient =   0.16E-05 energy =      -5912.6960605089

  ----------------------------------- OT ---------------------------------------
  Minimizer      : DIIS                : direct inversion
                                         in the iterative subspace
                                         using   8 DIIS vectors
                                         safer DIIS on
  Preconditioner : FULL_KINETIC        : inversion of T + eS
  Precond_solver : DEFAULT
  stepsize       :    0.15000000                  energy_gap     :    0.00010000
  eps_taylor     :   0.10000E-15                  max_taylor     :             4
  ----------------------------------- OT ---------------------------------------

  Step     Update method      Time    Convergence         Total energy    Change
  ------------------------------------------------------------------------------
     1 OT DIIS     0.15E+00   49.4     0.00000174     -5912.6960611747 -6.66E-07
     2 OT DIIS     0.15E+00   21.3     0.00001658     -5912.6960399421  2.12E-05
     3 OT DIIS     0.15E+00   20.8     0.00000130     -5912.6960623500 -2.24E-05
     4 OT DIIS     0.15E+00   21.0     0.00000081     -5912.6960627822 -4.32E-07

  *** SCF run converged in     4 steps ***


  Electronic density on regular grids:      -3468.0000000010       -0.0000000010
  Core density on regular grids:             3467.9999999952       -0.0000000048
  Total charge density on r-space grids:       -0.0000000058
  Total charge density g-space grids:          -0.0000000048

  Overlap energy of the core charge distribution:               0.00000032697939
  Self energy of the core charge distribution:             -13952.81139369569428
  Core Hamiltonian energy:                                   3143.32091618246295
  Hartree energy:                                            6202.85050152564145
  Exchange-correlation energy:                              -1303.59753354910026
  Dispersion energy:                                           -2.45855357244940

  Total energy:                                             -5912.69606278215906

  outer SCF iter =    2 RMS gradient =   0.81E-06 energy =      -5912.6960627822
  outer SCF loop converged in   2 iterations or   34 steps


 ENERGY| Total FORCE_EVAL ( QS ) energy (a.u.):            -5912.696063092302211


 --------  Informations at step =     3 ------------
  Optimization Method        =                 BFGS
  Total Energy               =     -5912.6960630923
  Real energy change         =        -0.0003881337
  Predicted change in energy =        -0.0002316617
  Scaling factor             =         0.0000000000
  Step size                  =         0.0725360317
  Trust radius               =         0.4724315332
  Decrease in energy         =                  YES
  Used time                  =              780.745

  Convergence check :
  Max. step size             =         0.0725360317
  Conv. limit for step size  =         0.0030000000
  Convergence in step size   =                   NO
  RMS step size              =         0.0029948091
  Conv. limit for RMS step   =         0.0015000000
  Convergence in RMS step    =                   NO
  Max. gradient              =         0.0029097401
  Conv. limit for gradients  =         0.0004500000
  Conv. for gradients        =                   NO
  RMS gradient               =         0.0001265805
  Conv. limit for RMS grad.  =         0.0003000000
  Conv. in RMS gradients     =                  YES
 ---------------------------------------------------

 --------------------------
 OPTIMIZATION STEP:      4
 --------------------------

 Number of electrons:                                                       3468
 Number of occupied orbitals:                                               1734
 Number of molecular orbitals:                                              1734

 Number of orbital functions:                                               7512
 Number of independent orbital functions:                                   7512

 Extrapolation method: ASPC


 SCF WAVEFUNCTION OPTIMIZATION

  ----------------------------------- OT ---------------------------------------
  Minimizer      : DIIS                : direct inversion
                                         in the iterative subspace
                                         using   8 DIIS vectors
                                         safer DIIS on
  Preconditioner : FULL_KINETIC        : inversion of T + eS
  Precond_solver : DEFAULT
  stepsize       :    0.15000000                  energy_gap     :    0.00010000
  eps_taylor     :   0.10000E-15                  max_taylor     :             4
  ----------------------------------- OT ---------------------------------------

  Step     Update method      Time    Convergence         Total energy    Change
  ------------------------------------------------------------------------------
     1 OT DIIS     0.15E+00   21.3     0.00002230     -5912.6942711139 -5.91E+03
     2 OT DIIS     0.15E+00   21.6     0.00003897     -5912.6949674543 -6.96E-04
     3 OT DIIS     0.15E+00   21.8     0.00004372     -5912.6950221462 -5.47E-05
     4 OT DIIS     0.15E+00   21.8     0.00002017     -5912.6957744183 -7.52E-04
     5 OT DIIS     0.15E+00   21.7     0.00002310     -5912.6959468142 -1.72E-04
     6 OT DIIS     0.15E+00   21.8     0.00002753     -5912.6960134812 -6.67E-05
     7 OT DIIS     0.15E+00   21.8     0.00000962     -5912.6962636845 -2.50E-04
     8 OT DIIS     0.15E+00   21.9     0.00000832     -5912.6963599885 -9.63E-05
     9 OT DIIS     0.15E+00   22.1     0.00001111     -5912.6964170502 -5.71E-05
    10 OT DIIS     0.15E+00   22.1     0.00001392     -5912.6964197017 -2.65E-06
    11 OT DIIS     0.15E+00   22.3     0.00000526     -5912.6964701361 -5.04E-05
    12 OT DIIS     0.15E+00   22.3     0.00000742     -5912.6964852386 -1.51E-05
    13 OT DIIS     0.15E+00   22.1     0.00000648     -5912.6964958631 -1.06E-05
    14 OT DIIS     0.15E+00   21.9     0.00000360     -5912.6965175017 -2.16E-05
    15 OT DIIS     0.15E+00   21.7     0.00000646     -5912.6965249377 -7.44E-06
    16 OT DIIS     0.15E+00   20.7     0.00000523     -5912.6965295888 -4.65E-06
    17 OT DIIS     0.15E+00   21.2     0.00000511     -5912.6965380322 -8.44E-06
    18 OT DIIS     0.15E+00   21.8     0.00000416     -5912.6965426283 -4.60E-06
    19 OT DIIS     0.15E+00   21.5     0.00000460     -5912.6965505039 -7.88E-06
    20 OT DIIS     0.15E+00   21.8     0.00000447     -5912.6965484308  2.07E-06
    21 OT DIIS     0.15E+00   21.7     0.00000408     -5912.6965534816 -5.05E-06
    22 OT DIIS     0.15E+00   22.1     0.00000433     -5912.6965566979 -3.22E-06
    23 OT DIIS     0.15E+00   21.9     0.00000239     -5912.6965571433 -4.45E-07
    24 OT DIIS     0.15E+00   21.9     0.00000376     -5912.6965574285 -2.85E-07
    25 OT DIIS     0.15E+00   22.0     0.00000281     -5912.6965597244 -2.30E-06
    26 OT DIIS     0.15E+00   21.9     0.00000258     -5912.6965605906 -8.66E-07
    27 OT DIIS     0.15E+00   22.1     0.00000212     -5912.6965614388 -8.48E-07
    28 OT DIIS     0.15E+00   22.1     0.00000191     -5912.6965625070 -1.07E-06
    29 OT DIIS     0.15E+00   21.8     0.00000224     -5912.6965626971 -1.90E-07
    30 OT DIIS     0.15E+00   20.9     0.00000163     -5912.6965643788 -1.68E-06

  Leaving inner SCF loop after reaching    30 steps.


  Electronic density on regular grids:      -3468.0000000008       -0.0000000008
  Core density on regular grids:             3467.9999999953       -0.0000000047
  Total charge density on r-space grids:       -0.0000000055
  Total charge density g-space grids:          -0.0000000046

  Overlap energy of the core charge distribution:               0.00000032685904
  Self energy of the core charge distribution:             -13952.81139369569428
  Core Hamiltonian energy:                                   3143.29029302092522
  Hartree energy:                                            6202.87233774124616
  Exchange-correlation energy:                              -1303.58949658848042
  Dispersion energy:                                           -2.45830518365066

  Total energy:                                             -5912.69656437879348

  outer SCF iter =    1 RMS gradient =   0.16E-05 energy =      -5912.6965643788

  ----------------------------------- OT ---------------------------------------
  Minimizer      : DIIS                : direct inversion
                                         in the iterative subspace
                                         using   8 DIIS vectors
                                         safer DIIS on
  Preconditioner : FULL_KINETIC        : inversion of T + eS
  Precond_solver : DEFAULT
  stepsize       :    0.15000000                  energy_gap     :    0.00010000
  eps_taylor     :   0.10000E-15                  max_taylor     :             4
  ----------------------------------- OT ---------------------------------------

  Step     Update method      Time    Convergence         Total energy    Change
  ------------------------------------------------------------------------------
     1 OT DIIS     0.15E+00   47.3     0.00000214     -5912.6965650578 -6.79E-07
     2 OT DIIS     0.15E+00   21.1     0.00002120     -5912.6965301763  3.49E-05
     3 OT DIIS     0.15E+00   21.6     0.00000125     -5912.6965666721 -3.65E-05
     4 OT DIIS     0.15E+00   21.2     0.00000098     -5912.6965671531 -4.81E-07

  *** SCF run converged in     4 steps ***


  Electronic density on regular grids:      -3468.0000000008       -0.0000000008
  Core density on regular grids:             3467.9999999953       -0.0000000047
  Total charge density on r-space grids:       -0.0000000055
  Total charge density g-space grids:          -0.0000000046

  Overlap energy of the core charge distribution:               0.00000032685904
  Self energy of the core charge distribution:             -13952.81139369569428
  Core Hamiltonian energy:                                   3143.29042810651890
  Hartree energy:                                            6202.87229425153237
  Exchange-correlation energy:                              -1303.58959095869250
  Dispersion energy:                                           -2.45830518365066

  Total energy:                                             -5912.69656715312703

  outer SCF iter =    2 RMS gradient =   0.98E-06 energy =      -5912.6965671531
  outer SCF loop converged in   2 iterations or   34 steps


 ENERGY| Total FORCE_EVAL ( QS ) energy (a.u.):            -5912.696567494307601


 --------  Informations at step =     4 ------------
  Optimization Method        =                 BFGS
  Total Energy               =     -5912.6965674943
  Real energy change         =        -0.0005044020
  Predicted change in energy =        -0.0003826937
  Scaling factor             =         0.0000000000
  Step size                  =         0.1406114237
  Trust radius               =         0.4724315332
  Decrease in energy         =                  YES
  Used time                  =              782.820

  Convergence check :
  Max. step size             =         0.1406114237
  Conv. limit for step size  =         0.0030000000
  Convergence in step size   =                   NO
  RMS step size              =         0.0061402024
  Conv. limit for RMS step   =         0.0015000000
  Convergence in RMS step    =                   NO
  Max. gradient              =         0.0036175118
  Conv. limit for gradients  =         0.0004500000
  Conv. for gradients        =                   NO
  RMS gradient               =         0.0001807870
  Conv. limit for RMS grad.  =         0.0003000000
  Conv. in RMS gradients     =                  YES
 ---------------------------------------------------

 --------------------------
 OPTIMIZATION STEP:      5
 --------------------------

 Number of electrons:                                                       3468
 Number of occupied orbitals:                                               1734
 Number of molecular orbitals:                                              1734

 Number of orbital functions:                                               7512
 Number of independent orbital functions:                                   7512

 Extrapolation method: ASPC


 SCF WAVEFUNCTION OPTIMIZATION

  ----------------------------------- OT ---------------------------------------
  Minimizer      : DIIS                : direct inversion
                                         in the iterative subspace
                                         using   8 DIIS vectors
                                         safer DIIS on
  Preconditioner : FULL_KINETIC        : inversion of T + eS
  Precond_solver : DEFAULT
  stepsize       :    0.15000000                  energy_gap     :    0.00010000
  eps_taylor     :   0.10000E-15                  max_taylor     :             4
  ----------------------------------- OT ---------------------------------------

  Step     Update method      Time    Convergence         Total energy    Change
  ------------------------------------------------------------------------------
     1 OT DIIS     0.15E+00   21.4     0.00002322     -5912.6950118020 -5.91E+03
     2 OT DIIS     0.15E+00   21.6     0.00005677     -5912.6956150072 -6.03E-04
     3 OT DIIS     0.15E+00   21.6     0.00003353     -5912.6958499282 -2.35E-04
     4 OT DIIS     0.15E+00   21.5     0.00002247     -5912.6965577010 -7.08E-04
     5 OT DIIS     0.15E+00   21.0     0.00002213     -5912.6967528577 -1.95E-04
     6 OT DIIS     0.15E+00   21.1     0.00002903     -5912.6968044293 -5.16E-05
     7 OT DIIS     0.15E+00   21.5     0.00001022     -5912.6970345605 -2.30E-04
     8 OT DIIS     0.15E+00   22.1     0.00000926     -5912.6971114781 -7.69E-05
     9 OT DIIS     0.15E+00   22.0     0.00000908     -5912.6971685386 -5.71E-05
    10 OT DIIS     0.15E+00   21.1     0.00001545     -5912.6971610149  7.52E-06
    11 OT DIIS     0.15E+00   21.1     0.00000574     -5912.6972071284 -4.61E-05
    12 OT DIIS     0.15E+00   21.8     0.00000747     -5912.6972177441 -1.06E-05
    13 OT DIIS     0.15E+00   22.1     0.00000562     -5912.6972237513 -6.01E-06
    14 OT DIIS     0.15E+00   22.2     0.00000391     -5912.6972391989 -1.54E-05
    15 OT DIIS     0.15E+00   22.3     0.00000638     -5912.6972432346 -4.04E-06
    16 OT DIIS     0.15E+00   21.9     0.00000426     -5912.6972457345 -2.50E-06
    17 OT DIIS     0.15E+00   21.9     0.00000325     -5912.6972527161 -6.98E-06
    18 OT DIIS     0.15E+00   22.0     0.00000290     -5912.6972566063 -3.89E-06
    19 OT DIIS     0.15E+00   21.8     0.00000542     -5912.6972605031 -3.90E-06
    20 OT DIIS     0.15E+00   21.2     0.00000315     -5912.6972603523  1.51E-07
    21 OT DIIS     0.15E+00   22.3     0.00000415     -5912.6972610579 -7.06E-07
    22 OT DIIS     0.15E+00   22.1     0.00000309     -5912.6972647159 -3.66E-06
    23 OT DIIS     0.15E+00   22.1     0.00000214     -5912.6972655083 -7.92E-07
    24 OT DIIS     0.15E+00   21.5     0.00000317     -5912.6972654718  3.66E-08
    25 OT DIIS     0.15E+00   21.2     0.00000217     -5912.6972670333 -1.56E-06
    26 OT DIIS     0.15E+00   21.6     0.00000171     -5912.6972680208 -9.88E-07
    27 OT DIIS     0.15E+00   22.2     0.00000153     -5912.6972687295 -7.09E-07
    28 OT DIIS     0.15E+00   22.1     0.00000186     -5912.6972698105 -1.08E-06
    29 OT DIIS     0.15E+00   22.0     0.00000199     -5912.6972699310 -1.21E-07
    30 OT DIIS     0.15E+00   21.9     0.00000167     -5912.6972705166 -5.86E-07

  Leaving inner SCF loop after reaching    30 steps.


  Electronic density on regular grids:      -3468.0000000012       -0.0000000012
  Core density on regular grids:             3467.9999999952       -0.0000000048
  Total charge density on r-space grids:       -0.0000000060
  Total charge density g-space grids:          -0.0000000050

  Overlap energy of the core charge distribution:               0.00000032687195
  Self energy of the core charge distribution:             -13952.81139369569428
  Core Hamiltonian energy:                                   3143.28807072864947
  Hartree energy:                                            6202.87525210433432
  Exchange-correlation energy:                              -1303.59117681469797
  Dispersion energy:                                           -2.45802316604872

  Total energy:                                             -5912.69727051658356

  outer SCF iter =    1 RMS gradient =   0.17E-05 energy =      -5912.6972705166

  ----------------------------------- OT ---------------------------------------
  Minimizer      : DIIS                : direct inversion
                                         in the iterative subspace
                                         using   8 DIIS vectors
                                         safer DIIS on
  Preconditioner : FULL_KINETIC        : inversion of T + eS
  Precond_solver : DEFAULT
  stepsize       :    0.15000000                  energy_gap     :    0.00010000
  eps_taylor     :   0.10000E-15                  max_taylor     :             4
  ----------------------------------- OT ---------------------------------------

  Step     Update method      Time    Convergence         Total energy    Change
  ------------------------------------------------------------------------------
     1 OT DIIS     0.15E+00   49.0     0.00000174     -5912.6972715836 -1.07E-06
     2 OT DIIS     0.15E+00   20.1     0.00001637     -5912.6972505062  2.11E-05
     3 OT DIIS     0.15E+00   20.8     0.00000148     -5912.6972726118 -2.21E-05
     4 OT DIIS     0.15E+00   21.3     0.00000080     -5912.6972731162 -5.04E-07

  *** SCF run converged in     4 steps ***


  Electronic density on regular grids:      -3468.0000000012       -0.0000000012
  Core density on regular grids:             3467.9999999952       -0.0000000048
  Total charge density on r-space grids:       -0.0000000060
  Total charge density g-space grids:          -0.0000000050

  Overlap energy of the core charge distribution:               0.00000032687195
  Self energy of the core charge distribution:             -13952.81139369569428
  Core Hamiltonian energy:                                   3143.28799474047401
  Hartree energy:                                            6202.87527098501050
  Exchange-correlation energy:                              -1303.59112230682103
  Dispersion energy:                                           -2.45802316604872

  Total energy:                                             -5912.69727311620682

  outer SCF iter =    2 RMS gradient =   0.80E-06 energy =      -5912.6972731162
  outer SCF loop converged in   2 iterations or   34 steps


 ENERGY| Total FORCE_EVAL ( QS ) energy (a.u.):            -5912.697273369244613


 --------  Informations at step =     5 ------------
  Optimization Method        =                 BFGS
  Total Energy               =     -5912.6972733692
  Real energy change         =        -0.0007058749
  Predicted change in energy =        -0.0002934809
  Scaling factor             =         0.0000000000
  Step size                  =         0.0943903044
  Trust radius               =         0.4724315332
  Decrease in energy         =                  YES
  Used time                  =              780.131

  Convergence check :
  Max. step size             =         0.0943903044
  Conv. limit for step size  =         0.0030000000
  Convergence in step size   =                   NO
  RMS step size              =         0.0051925599
  Conv. limit for RMS step   =         0.0015000000
  Convergence in RMS step    =                   NO
  Max. gradient              =         0.0056882083
  Conv. limit for gradients  =         0.0004500000
  Conv. for gradients        =                   NO
  RMS gradient               =         0.0002247540
  Conv. limit for RMS grad.  =         0.0003000000
  Conv. in RMS gradients     =                  YES
 ---------------------------------------------------

 --------------------------
 OPTIMIZATION STEP:      6
 --------------------------

  Step is scaled; Scaling factor =  0.01070

 Number of electrons:                                                       3468
 Number of occupied orbitals:                                               1734
 Number of molecular orbitals:                                              1734

 Number of orbital functions:                                               7512
 Number of independent orbital functions:                                   7512

 Extrapolation method: ASPC


 SCF WAVEFUNCTION OPTIMIZATION

  ----------------------------------- OT ---------------------------------------
  Minimizer      : DIIS                : direct inversion
                                         in the iterative subspace
                                         using   8 DIIS vectors
                                         safer DIIS on
  Preconditioner : FULL_KINETIC        : inversion of T + eS
  Precond_solver : DEFAULT
  stepsize       :    0.15000000                  energy_gap     :    0.00010000
  eps_taylor     :   0.10000E-15                  max_taylor     :             4
  ----------------------------------- OT ---------------------------------------

  Step     Update method      Time    Convergence         Total energy    Change
  ------------------------------------------------------------------------------
     1 OT DIIS     0.15E+00   21.4     0.00007129     -5912.6735577482 -5.91E+03
     2 OT DIIS     0.15E+00   22.2     0.00007595     -5912.6813597087 -7.80E-03
     3 OT DIIS     0.15E+00   22.3     0.00024299     -5912.6788600638  2.50E-03
     4 OT DIIS     0.15E+00   22.4     0.00004683     -5912.6883635256 -9.50E-03
     5 OT DIIS     0.15E+00   22.1     0.00005271     -5912.6896690031 -1.31E-03
     6 OT DIIS     0.15E+00   21.8     0.00009876     -5912.6906803478 -1.01E-03
     7 OT DIIS     0.15E+00   21.8     0.00004264     -5912.6925349468 -1.85E-03
     8 OT DIIS     0.15E+00   21.6     0.00002980     -5912.6938321807 -1.30E-03
     9 OT DIIS     0.15E+00   21.6     0.00001998     -5912.6946303817 -7.98E-04
    10 OT DIIS     0.15E+00   22.0     0.00004306     -5912.6951635175 -5.33E-04
    11 OT DIIS     0.15E+00   21.9     0.00002375     -5912.6953946240 -2.31E-04
    12 OT DIIS     0.15E+00   22.0     0.00001421     -5912.6956728485 -2.78E-04
    13 OT DIIS     0.15E+00   20.9     0.00002422     -5912.6959611634 -2.88E-04
    14 OT DIIS     0.15E+00   21.2     0.00001589     -5912.6961063806 -1.45E-04
    15 OT DIIS     0.15E+00   21.3     0.00001330     -5912.6962625799 -1.56E-04
    16 OT DIIS     0.15E+00   21.9     0.00002266     -5912.6963309036 -6.83E-05
    17 OT DIIS     0.15E+00   21.6     0.00001349     -5912.6964339824 -1.03E-04
    18 OT DIIS     0.15E+00   21.9     0.00001344     -5912.6965133226 -7.93E-05
    19 OT DIIS     0.15E+00   21.8     0.00001234     -5912.6965593141 -4.60E-05
    20 OT DIIS     0.15E+00   21.6     0.00002028     -5912.6965822075 -2.29E-05
    21 OT DIIS     0.15E+00   21.4     0.00001143     -5912.6966367785 -5.46E-05
    22 OT DIIS     0.15E+00   21.2     0.00001149     -5912.6966764812 -3.97E-05
    23 OT DIIS     0.15E+00   21.1     0.00001394     -5912.6966632830  1.32E-05
    24 OT DIIS     0.15E+00   21.4     0.00000843     -5912.6966986544 -3.54E-05
    25 OT DIIS     0.15E+00   21.3     0.00001315     -5912.6967110000 -1.23E-05
    26 OT DIIS     0.15E+00   21.7     0.00000843     -5912.6967277618 -1.68E-05
    27 OT DIIS     0.15E+00   21.5     0.00000775     -5912.6967372967 -9.53E-06
    28 OT DIIS     0.15E+00   20.9     0.00000632     -5912.6967463934 -9.10E-06
    29 OT DIIS     0.15E+00   21.3     0.00000816     -5912.6967635516 -1.72E-05
    30 OT DIIS     0.15E+00   21.4     0.00000664     -5912.6967699455 -6.39E-06

  Leaving inner SCF loop after reaching    30 steps.


  Electronic density on regular grids:      -3468.0000000356       -0.0000000356
  Core density on regular grids:             3467.9999999952       -0.0000000048
  Total charge density on r-space grids:       -0.0000000404
  Total charge density g-space grids:          -0.0000000394

  Overlap energy of the core charge distribution:               0.00000032977829
  Self energy of the core charge distribution:             -13952.81139369569428
  Core Hamiltonian energy:                                   3143.31509005050520
  Hartree energy:                                            6202.86311724813004
  Exchange-correlation energy:                              -1303.60615979726253
  Dispersion energy:                                           -2.45742408090926

  Total energy:                                             -5912.69676994545080

  outer SCF iter =    1 RMS gradient =   0.66E-05 energy =      -5912.6967699455

  ----------------------------------- OT ---------------------------------------
  Minimizer      : DIIS                : direct inversion
                                         in the iterative subspace
                                         using   8 DIIS vectors
                                         safer DIIS on
  Preconditioner : FULL_KINETIC        : inversion of T + eS
  Precond_solver : DEFAULT
  stepsize       :    0.15000000                  energy_gap     :    0.00010000
  eps_taylor     :   0.10000E-15                  max_taylor     :             4
  ----------------------------------- OT ---------------------------------------

  Step     Update method      Time    Convergence         Total energy    Change
  ------------------------------------------------------------------------------
     1 OT DIIS     0.15E+00   47.3     0.00000537     -5912.6967847063 -1.48E-05
     2 OT DIIS     0.15E+00   20.0     0.00003907     -5912.6966743259  1.10E-04
     3 OT DIIS     0.15E+00   21.5     0.00000628     -5912.6968058877 -1.32E-04
     4 OT DIIS     0.15E+00   21.5     0.00000362     -5912.6968142827 -8.40E-06
     5 OT DIIS     0.15E+00   21.9     0.00000427     -5912.6968231514 -8.87E-06
     6 OT DIIS     0.15E+00   21.7     0.00000608     -5912.6968385494 -1.54E-05
     7 OT DIIS     0.15E+00   21.7     0.00000359     -5912.6969280882 -8.95E-05
     8 OT DIIS     0.15E+00   21.7     0.00000208     -5912.6969551158 -2.70E-05
     9 OT DIIS     0.15E+00   21.7     0.00000323     -5912.6969634896 -8.37E-06
    10 OT DIIS     0.15E+00   21.6     0.00000269     -5912.6969709033 -7.41E-06
    11 OT DIIS     0.15E+00   22.0     0.00000195     -5912.6969775649 -6.66E-06
    12 OT DIIS     0.15E+00   21.9     0.00000270     -5912.6969874325 -9.87E-06
    13 OT DIIS     0.15E+00   22.0     0.00000445     -5912.6970023910 -1.50E-05
    14 OT DIIS     0.15E+00   21.5     0.00000238     -5912.6970205315 -1.81E-05
    15 OT DIIS     0.15E+00   21.7     0.00000245     -5912.6970250644 -4.53E-06
    16 OT DIIS     0.15E+00   21.6     0.00000167     -5912.6970281384 -3.07E-06
    17 OT DIIS     0.15E+00   21.8     0.00000187     -5912.6970297798 -1.64E-06
    18 OT DIIS     0.15E+00   22.0     0.00000158     -5912.6970340203 -4.24E-06
    19 OT DIIS     0.15E+00   21.7     0.00000181     -5912.6970348469 -8.27E-07
    20 OT DIIS     0.15E+00   21.9     0.00000190     -5912.6970361385 -1.29E-06
    21 OT DIIS     0.15E+00   22.0     0.00000192     -5912.6970403665 -4.23E-06
    22 OT SD       0.15E+00   21.8     0.00000177     -5912.6970431172 -2.75E-06
    23 OT DIIS     0.15E+00   21.7     0.00001443     -5912.6970261243  1.70E-05
    24 OT DIIS     0.15E+00   21.4     0.00000195     -5912.6970451831 -1.91E-05
    25 OT DIIS     0.15E+00   21.9     0.00000204     -5912.6970455134 -3.30E-07
    26 OT SD       0.15E+00   21.8     0.00000117     -5912.6970490349 -3.52E-06
    27 OT DIIS     0.15E+00   21.9     0.00000648     -5912.6970457397  3.30E-06
    28 OT DIIS     0.15E+00   22.0     0.00000148     -5912.6970511066 -5.37E-06
    29 OT DIIS     0.15E+00   21.9     0.00000141     -5912.6970524586 -1.35E-06
    30 OT SD       0.15E+00   21.9     0.00000135     -5912.6970550318 -2.57E-06

  Leaving inner SCF loop after reaching    30 steps.


  Electronic density on regular grids:      -3468.0000000008       -0.0000000008
  Core density on regular grids:             3467.9999999952       -0.0000000048
  Total charge density on r-space grids:       -0.0000000056
  Total charge density g-space grids:          -0.0000000047

  Overlap energy of the core charge distribution:               0.00000032977829
  Self energy of the core charge distribution:             -13952.81139369569428
  Core Hamiltonian energy:                                   3143.31683493025457
  Hartree energy:                                            6202.86222310877747
  Exchange-correlation energy:                              -1303.60729562403981
  Dispersion energy:                                           -2.45742408090926

  Total energy:                                             -5912.69705503183195

  outer SCF iter =    2 RMS gradient =   0.14E-05 energy =      -5912.6970550318

  ----------------------------------- OT ---------------------------------------
  Minimizer      : DIIS                : direct inversion
                                         in the iterative subspace
                                         using   8 DIIS vectors
                                         safer DIIS on
  Preconditioner : FULL_KINETIC        : inversion of T + eS
  Precond_solver : DEFAULT
  stepsize       :    0.15000000                  energy_gap     :    0.00010000
  eps_taylor     :   0.10000E-15                  max_taylor     :             4
  ----------------------------------- OT ---------------------------------------

  Step     Update method      Time    Convergence         Total energy    Change
  ------------------------------------------------------------------------------
     1 OT DIIS     0.15E+00   49.5     0.00001081     -5912.6970451339  9.90E-06
     2 OT DIIS     0.15E+00   20.8     0.00010882     -5912.6960257057  1.02E-03
     3 OT DIIS     0.15E+00   21.1     0.00000770     -5912.6970474792 -1.02E-03
     4 OT DIIS     0.15E+00   21.6     0.00000092     -5912.6970566095 -9.13E-06

  *** SCF run converged in     4 steps ***


  Electronic density on regular grids:      -3468.0000000008       -0.0000000008
  Core density on regular grids:             3467.9999999952       -0.0000000048
  Total charge density on r-space grids:       -0.0000000056
  Total charge density g-space grids:          -0.0000000047

  Overlap energy of the core charge distribution:               0.00000032977829
  Self energy of the core charge distribution:             -13952.81139369569428
  Core Hamiltonian energy:                                   3143.31683899949076
  Hartree energy:                                            6202.86221766771814
  Exchange-correlation energy:                              -1303.60729582984732
  Dispersion energy:                                           -2.45742408090926

  Total energy:                                             -5912.69705660946147

  outer SCF iter =    3 RMS gradient =   0.92E-06 energy =      -5912.6970566095
  outer SCF loop converged in   3 iterations or   64 steps


 ENERGY| Total FORCE_EVAL ( QS ) energy (a.u.):            -5912.697056824899846


 --------  Informations at step =     6 ------------
  Optimization Method        =                 BFGS
  Total Energy               =     -5912.6970568249
  Real energy change         =         0.0002165443
  Predicted change in energy =        -1.4242565230
  Scaling factor             =         0.0106994354
  Step size                  =         0.4724315332
  Trust radius               =         0.4724315332
  Decrease in energy         =                   NO
  Used time                  =             1434.991

  Convergence check :
  Max. step size             =         0.4724315332
  Conv. limit for step size  =         0.0030000000
  Convergence in step size   =                   NO
  RMS step size              =         0.0162797159
  Conv. limit for RMS step   =         0.0015000000
  Convergence in RMS step    =                   NO
  Max. gradient              =         0.0185713497
  Conv. limit for gradients  =         0.0004500000
  Conv. for gradients        =                   NO
  RMS gradient               =         0.0011028974
  Conv. limit for RMS grad.  =         0.0003000000
  Conv. for gradients        =                   NO
 ---------------------------------------------------

 --------------------------
 OPTIMIZATION STEP:      7
 --------------------------

  Step is scaled; Scaling factor =  0.02055

 Number of electrons:                                                       3468
 Number of occupied orbitals:                                               1734
 Number of molecular orbitals:                                              1734

 Number of orbital functions:                                               7512
 Number of independent orbital functions:                                   7512

 Extrapolation method: ASPC


 SCF WAVEFUNCTION OPTIMIZATION

  ----------------------------------- OT ---------------------------------------
  Minimizer      : DIIS                : direct inversion
                                         in the iterative subspace
                                         using   8 DIIS vectors
                                         safer DIIS on
  Preconditioner : FULL_KINETIC        : inversion of T + eS
  Precond_solver : DEFAULT
  stepsize       :    0.15000000                  energy_gap     :    0.00010000
  eps_taylor     :   0.10000E-15                  max_taylor     :             4
  ----------------------------------- OT ---------------------------------------

  Step     Update method      Time    Convergence         Total energy    Change
  ------------------------------------------------------------------------------
     1 OT DIIS     0.15E+00   21.4     0.00011189     -5912.6478254329 -5.91E+03
     2 OT DIIS     0.15E+00   21.5     0.00009348     -5912.6672384767 -1.94E-02
     3 OT DIIS     0.15E+00   21.5     0.00043660     -5912.6591305005  8.11E-03
     4 OT DIIS     0.15E+00   22.0     0.00007298     -5912.6825083247 -2.34E-02
     5 OT DIIS     0.15E+00   22.3     0.00008172     -5912.6857779366 -3.27E-03
     6 OT DIIS     0.15E+00   22.0     0.00014722     -5912.6882215558 -2.44E-03
     7 OT DIIS     0.15E+00   22.0     0.00007373     -5912.6922811089 -4.06E-03
     8 OT DIIS     0.15E+00   21.9     0.00005592     -5912.6938678531 -1.59E-03
     9 OT DIIS     0.15E+00   22.0     0.00003872     -5912.6956442907 -1.78E-03
    10 OT DIIS     0.15E+00   21.9     0.00008589     -5912.6958737304 -2.29E-04
    11 OT DIIS     0.15E+00   21.8     0.00002029     -5912.6971663235 -1.29E-03
    12 OT DIIS     0.15E+00   21.6     0.00002392     -5912.6977995295 -6.33E-04
    13 OT DIIS     0.15E+00   21.8     0.00002588     -5912.6982509223 -4.51E-04
    14 OT DIIS     0.15E+00   21.6     0.00002278     -5912.6985199784 -2.69E-04
    15 OT DIIS     0.15E+00   21.7     0.00002620     -5912.6987297688 -2.10E-04
    16 OT DIIS     0.15E+00   21.8     0.00002675     -5912.6989360508 -2.06E-04
    17 OT DIIS     0.15E+00   21.6     0.00002187     -5912.6990727763 -1.37E-04
    18 OT DIIS     0.15E+00   21.9     0.00001723     -5912.6992039080 -1.31E-04
    19 OT DIIS     0.15E+00   22.0     0.00001822     -5912.6993434143 -1.40E-04
    20 OT DIIS     0.15E+00   22.0     0.00002193     -5912.6993588508 -1.54E-05
    21 OT DIIS     0.15E+00   21.7     0.00001275     -5912.6994931659 -1.34E-04
    22 OT DIIS     0.15E+00   21.6     0.00001633     -5912.6995059882 -1.28E-05
    23 OT DIIS     0.15E+00   20.3     0.00001649     -5912.6995150714 -9.08E-06
    24 OT DIIS     0.15E+00   21.1     0.00001511     -5912.6995817880 -6.67E-05
    25 OT DIIS     0.15E+00   22.0     0.00001513     -5912.6996024024 -2.06E-05
    26 OT DIIS     0.15E+00   22.6     0.00001348     -5912.6996091333 -6.73E-06
    27 OT DIIS     0.15E+00   22.5     0.00000962     -5912.6996362277 -2.71E-05
    28 OT DIIS     0.15E+00   22.2     0.00000889     -5912.6996534374 -1.72E-05
    29 OT DIIS     0.15E+00   22.2     0.00001019     -5912.6996822063 -2.88E-05
    30 OT DIIS     0.15E+00   22.0     0.00000685     -5912.6996972321 -1.50E-05

  Leaving inner SCF loop after reaching    30 steps.


  Electronic density on regular grids:      -3468.0000000888       -0.0000000888
  Core density on regular grids:             3467.9999999952       -0.0000000048
  Total charge density on r-space grids:       -0.0000000936
  Total charge density g-space grids:          -0.0000000926

  Overlap energy of the core charge distribution:               0.00000033834648
  Self energy of the core charge distribution:             -13952.81139369569428
  Core Hamiltonian energy:                                   3143.38533649897909
  Hartree energy:                                            6202.81848738087410
  Exchange-correlation energy:                              -1303.63569327388268
  Dispersion energy:                                           -2.45643448072898

  Total energy:                                             -5912.69969723210670

  outer SCF iter =    1 RMS gradient =   0.69E-05 energy =      -5912.6996972321

  ----------------------------------- OT ---------------------------------------
  Minimizer      : DIIS                : direct inversion
                                         in the iterative subspace
                                         using   8 DIIS vectors
                                         safer DIIS on
  Preconditioner : FULL_KINETIC        : inversion of T + eS
  Precond_solver : DEFAULT
  stepsize       :    0.15000000                  energy_gap     :    0.00010000
  eps_taylor     :   0.10000E-15                  max_taylor     :             4
  ----------------------------------- OT ---------------------------------------

  Step     Update method      Time    Convergence         Total energy    Change
  ------------------------------------------------------------------------------
     1 OT DIIS     0.15E+00   50.0     0.00000821     -5912.6997148758 -1.76E-05
     2 OT DIIS     0.15E+00   21.2     0.00006139     -5912.6993900913  3.25E-04
     3 OT DIIS     0.15E+00   20.9     0.00001171     -5912.6997394501 -3.49E-04
     4 OT DIIS     0.15E+00   20.9     0.00000452     -5912.6997587145 -1.93E-05
     5 OT DIIS     0.15E+00   21.4     0.00000507     -5912.6997702019 -1.15E-05
     6 OT DIIS     0.15E+00   22.0     0.00000695     -5912.6997862362 -1.60E-05
     7 OT DIIS     0.15E+00   22.0     0.00000488     -5912.6998765244 -9.03E-05
     8 OT DIIS     0.15E+00   21.3     0.00000333     -5912.6999279869 -5.15E-05
     9 OT DIIS     0.15E+00   21.9     0.00000304     -5912.6999332297 -5.24E-06
    10 OT DIIS     0.15E+00   21.6     0.00000505     -5912.6999378236 -4.59E-06
    11 OT DIIS     0.15E+00   22.0     0.00000194     -5912.6999479059 -1.01E-05
    12 OT DIIS     0.15E+00   22.0     0.00000236     -5912.6999540616 -6.16E-06
    13 OT DIIS     0.15E+00   22.2     0.00000399     -5912.6999597673 -5.71E-06
    14 OT DIIS     0.15E+00   21.8     0.00000233     -5912.6999772684 -1.75E-05
    15 OT DIIS     0.15E+00   21.5     0.00000240     -5912.6999825810 -5.31E-06
    16 OT DIIS     0.15E+00   21.8     0.00000197     -5912.6999846415 -2.06E-06
    17 OT DIIS     0.15E+00   22.0     0.00000219     -5912.6999845057  1.36E-07
    18 OT DIIS     0.15E+00   21.8     0.00000223     -5912.6999874960 -2.99E-06
    19 OT DIIS     0.15E+00   21.8     0.00000110     -5912.6999893256 -1.83E-06
    20 OT DIIS     0.15E+00   21.7     0.00000171     -5912.6999902352 -9.10E-07
    21 OT DIIS     0.15E+00   21.9     0.00000126     -5912.6999923593 -2.12E-06
    22 OT DIIS     0.15E+00   21.7     0.00000141     -5912.6999939627 -1.60E-06
    23 OT DIIS     0.15E+00   21.9     0.00000183     -5912.6999938228  1.40E-07
    24 OT DIIS     0.15E+00   21.8     0.00000181     -5912.6999938873 -6.45E-08
    25 OT DIIS     0.15E+00   21.7     0.00000156     -5912.6999949728 -1.09E-06
[...]
     9 OT DIIS     0.15E+00   13.7     0.00000298     -5912.8295560568 -1.46E-06
    10 OT DIIS     0.15E+00   13.7     0.00000157     -5912.8295571592 -1.10E-06
    11 OT DIIS     0.15E+00   13.6     0.00000170     -5912.8295592918 -2.13E-06
    12 OT DIIS     0.15E+00   13.5     0.00000189     -5912.8295592700  2.18E-08
    13 OT DIIS     0.15E+00   13.5     0.00000075     -5912.8295601026 -8.33E-07

  *** SCF run converged in    13 steps ***


  Electronic density on regular grids:      -3468.0000000013       -0.0000000013
  Core density on regular grids:             3467.9999999953       -0.0000000047
  Total charge density on r-space grids:       -0.0000000060
  Total charge density g-space grids:          -0.0000000051

  Overlap energy of the core charge distribution:               0.00000032720525
  Self energy of the core charge distribution:             -13952.81139369569428
  Core Hamiltonian energy:                                   3143.52549270847976
  Hartree energy:                                            6202.67650453186798
  Exchange-correlation energy:                              -1303.75970422521709
  Dispersion energy:                                           -2.46045974928853

  Total energy:                                             -5912.82956010264843

  outer SCF iter =    1 RMS gradient =   0.75E-06 energy =      -5912.8295601026
  outer SCF loop converged in   1 iterations or   13 steps


 ENERGY| Total FORCE_EVAL ( QS ) energy (a.u.):            -5912.829560102648429


 -------------------------------------------------------------------------------
 -                                                                             -
 -                                DBCSR STATISTICS                             -
 -                                                                             -
 -------------------------------------------------------------------------------
 COUNTER                                    TOTAL       BLAS       SMM       ACC
 flops     6 x     6 x     6             86033664       0.0%    100.0%      0.0%
 flops     6 x    32 x    32            732561408       0.0%    100.0%      0.0%
 flops     6 x     6 x   416           1749196800       0.0%    100.0%      0.0%
 flops     6 x     6 x   422           1774425600       0.0%    100.0%      0.0%
 flops     6 x     6 x   448           3767500800       0.0%    100.0%      0.0%
 flops     6 x     6 x    13          17230328856       0.0%    100.0%      0.0%
 flops    13 x     6 x     6          17379130392       0.0%    100.0%      0.0%
 flops     6 x    32 x     6          24640339968       0.0%    100.0%      0.0%
 flops    13 x    32 x    32         228559159296       0.0%    100.0%      0.0%
 flops     6 x    13 x   416         279967638912       0.0%    100.0%      0.0%
 flops    13 x     6 x   416         283569302016       0.0%    100.0%      0.0%
 flops     6 x    13 x   422         284005633704       0.0%    100.0%      0.0%
 flops    13 x     6 x   422         287659243872       0.0%    100.0%      0.0%
 flops     6 x    13 x   448         603007222272       0.0%    100.0%      0.0%
 flops    13 x     6 x   448         610764650496       0.0%    100.0%      0.0%
 flops   416 x   416 x   416        4261308792832     100.0%      0.0%      0.0%
 flops   416 x   416 x   422        4322769977344     100.0%      0.0%      0.0%
 flops   416 x   422 x   416        4322769977344     100.0%      0.0%      0.0%
 flops   422 x   416 x   416        4322769977344     100.0%      0.0%      0.0%
 flops   416 x   422 x   422        4385117621248     100.0%      0.0%      0.0%
 flops   422 x   416 x   422        4385117621248     100.0%      0.0%      0.0%
 flops   422 x   422 x   416        4385117621248     100.0%      0.0%      0.0%
 flops   422 x   422 x   422        4448364510016     100.0%      0.0%      0.0%
 flops    13 x     6 x    13        4789532118384       0.0%    100.0%      0.0%
 flops    13 x    32 x     6        4962334710528       0.0%    100.0%      0.0%
 flops     6 x    32 x    13        4962334710528       0.0%    100.0%      0.0%
 flops   416 x   416 x   448        9178203553792     100.0%      0.0%      0.0%
 flops   416 x   448 x   416        9178203553792     100.0%      0.0%      0.0%
 flops   448 x   416 x   416        9178203553792     100.0%      0.0%      0.0%
 flops   416 x   422 x   448        9310581489664     100.0%      0.0%      0.0%
 flops   416 x   448 x   422        9310581489664     100.0%      0.0%      0.0%
 flops   422 x   416 x   448        9310581489664     100.0%      0.0%      0.0%
 flops   422 x   448 x   416        9310581489664     100.0%      0.0%      0.0%
 flops   448 x   416 x   422        9310581489664     100.0%      0.0%      0.0%
 flops   448 x   422 x   416        9310581489664     100.0%      0.0%      0.0%
 flops   422 x   422 x   448        9444868722688     100.0%      0.0%      0.0%
 flops   422 x   448 x   422        9444868722688     100.0%      0.0%      0.0%
 flops   448 x   422 x   422        9444868722688     100.0%      0.0%      0.0%
 flops   448 x   448 x   416       19768438423552     100.0%      0.0%      0.0%
 flops   416 x   448 x   448       19768438423552     100.0%      0.0%      0.0%
 flops   448 x   416 x   448       19768438423552     100.0%      0.0%      0.0%
 flops   448 x   448 x   422       20053560131584     100.0%      0.0%      0.0%
 flops   422 x   448 x   448       20053560131584     100.0%      0.0%      0.0%
 flops   448 x   422 x   448       20053560131584     100.0%      0.0%      0.0%
 flops   448 x   448 x   448       42578175066112     100.0%      0.0%      0.0%
 flops   416 x   416 x  1878       56721454792704     100.0%      0.0%      0.0%
 flops   416 x   422 x  1878       57539552698368     100.0%      0.0%      0.0%
 flops   422 x   416 x  1878       57539552698368     100.0%      0.0%      0.0%
 flops   422 x   422 x  1878       58369450093056     100.0%      0.0%      0.0%
 flops  1878 x   416 x   416       70363619868672     100.0%      0.0%      0.0%
 flops  1878 x   416 x   422       71378479770624     100.0%      0.0%      0.0%
 flops  1878 x   422 x   416       71378479770624     100.0%      0.0%      0.0%
 flops  1878 x   422 x   422       72407977075008     100.0%      0.0%      0.0%
 flops    13 x    13 x   416       78573557915840       0.0%    100.0%      0.0%
 flops    13 x    13 x   422       79706830385780       0.0%    100.0%      0.0%
 flops   416 x   448 x  1878      122169287245824     100.0%      0.0%      0.0%
 flops   448 x   416 x  1878      122169287245824     100.0%      0.0%      0.0%
 flops   422 x   448 x  1878      123931344273408     100.0%      0.0%      0.0%
 flops   448 x   422 x  1878      123931344273408     100.0%      0.0%      0.0%
 flops  1878 x   448 x   416      151552412024832     100.0%      0.0%      0.0%
 flops  1878 x   416 x   448      151552412024832     100.0%      0.0%      0.0%
 flops  1878 x   448 x   422      153738264121344     100.0%      0.0%      0.0%
 flops  1878 x   422 x   448      153738264121344     100.0%      0.0%      0.0%
 flops    13 x    13 x   448      169235355511040       0.0%    100.0%      0.0%
 flops   448 x   448 x  1878      263133849452544     100.0%      0.0%      0.0%
 flops  1878 x   416 x  1878      272262353006592     100.0%      0.0%      0.0%
 flops  1878 x   422 x  1878      276189213867264     100.0%      0.0%      0.0%
 flops  1878 x   448 x   448      326420579745792     100.0%      0.0%      0.0%
 flops  1878 x   448 x  1878      586411221860352     100.0%      0.0%      0.0%
 flops    13 x    32 x    13     1379385250094592       0.0%    100.0%      0.0%
 flops inhomo. stacks                           0       0.0%      0.0%      0.0%
 flops total                         5.375769E+15      67.9%     32.1%      0.0%
 flops max/rank                    356.415832E+12      67.0%     33.0%      0.0%
 matmuls inhomo. stacks                         0       0.0%      0.0%      0.0%
 matmuls total                       134213864718       0.0%    100.0%      0.0%
 number of processed stacks             144215057       3.7%     96.3%      0.0%
 average stack size                                     1.0     966.8       0.0
 marketing flops                     7.239491E+15
 -------------------------------------------------------------------------------
 # multiplications                         103044
 max memory usage/rank               2.035634E+09
 # max total images/rank                        1
 # max 3D layers                                1
 # MPI messages exchanged                 9892224
 MPI messages size (bytes):
  total size                        55.213440E+12
  min size                           0.000000E+00
  max size                          28.215072E+06
  average size                       5.581499E+06
 MPI breakdown and total messages size (bytes):
             size <=      128               36432                        0
       128 < size <=     8192                   0                        0
      8192 < size <=    32768                   0                        0
     32768 < size <=   131072                3312                366519168
    131072 < size <=  4194304             4140240            6224345730720
   4194304 < size <= 16777216             5211084           37231426476000
  16777216 < size                          501156           11791239967584
 -------------------------------------------------------------------------------

 MEMORY| Estimated peak process memory [MiB]                                1942

 -------------------------------------------------------------------------------
 -                                                                             -
 -                         MESSAGE PASSING PERFORMANCE                         -
 -                                                                             -
 -------------------------------------------------------------------------------

 ROUTINE             CALLS      AVE VOLUME [Bytes]
 MP_Group             2782
 MP_Bcast            29850                  19661.
 MP_Allreduce       641294                    184.
 MP_Sync                 4
 MP_Alltoall        442018               37495630.
 MP_SendRecv          9480                  25731.
 MP_ISendRecv       340890                 730080.
 MP_Wait           5540475
 MP_ISend          1831944                2394282.
 MP_IRecv          1831944                2399607.
 MP_Recv             25245                1454409.
 MP_Memory         4518088
 -------------------------------------------------------------------------------


 -------------------------------------------------------------------------------
 -                                                                             -
 -                           R E F E R E N C E S                               -
 -                                                                             -
 -------------------------------------------------------------------------------
 
 CP2K version 7.0 (Development Version), the CP2K developers group (2018).
 CP2K is freely available from https://www.cp2k.org/ .

 Schuett, Ole; Messmer, Peter; Hutter, Juerg; VandeVondele, Joost. 
 Electronic Structure Calculations on Graphics Processing Units, John Wiley & Sons, Ltd, 173-190 (2016). 
 GPU-Accelerated Sparse Matrix-Matrix Multiplication for Linear Scaling Density Functional Theory.
 http://dx.doi.org/10.1002/9781118670712.ch8


 Borstnik, U; VandeVondele, J; Weber, V; Hutter, J. 
 PARALLEL COMPUTING, 40 (5-6), 47-58 (2014). 
 Sparse matrix multiplication: The distributed block-compressed sparse
 row library.
 http://dx.doi.org/10.1016/j.parco.2014.03.012


 Hutter, J; Iannuzzi, M; Schiffmann, F; VandeVondele, J. 
 WILEY INTERDISCIPLINARY REVIEWS-COMPUTATIONAL MOLECULAR SCIENCE, 4 (1), 15-25 (2014). 
 CP2K: atomistic simulations of condensed matter systems.
 http://dx.doi.org/10.1002/wcms.1159


 Grimme, S; Ehrlich, S; Goerigk, L. 
 JOURNAL OF COMPUTATIONAL CHEMISTRY, 32, 1456 (2011). 
 Effect of the damping function in dispersion corrected density functional theory.
 http://dx.doi.org/10.1002/jcc.21759


 Grimme, S; Antony, J; Ehrlich, S; Krieg, H. 
 JOURNAL OF CHEMICAL PHYSICS, 132 (15), 154104 (2010). 
 A consistent and accurate ab initio parametrization of density
 functional dispersion correction (DFT-D) for the 94 elements H-Pu.
 http://dx.doi.org/10.1063/1.3382344


 VandeVondele, J; Hutter, J. 
 JOURNAL OF CHEMICAL PHYSICS, 127 (11), 114105 (2007). 
 Gaussian basis sets for accurate calculations on molecular systems in
 gas and condensed phases.
 http://dx.doi.org/10.1063/1.2770708


 Krack, M. 
 THEORETICAL CHEMISTRY ACCOUNTS, 114 (1-3), 145-152 (2005). 
 Pseudopotentials for H to Kr optimized for gradient-corrected
 exchange-correlation functionals.
 http://dx.doi.org/10.1007/s00214-005-0655-y


 VandeVondele, J; Krack, M; Mohamed, F; Parrinello, M; Chassaing, T;
 Hutter, J. COMPUTER PHYSICS COMMUNICATIONS, 167 (2), 103-128 (2005). 
 QUICKSTEP: Fast and accurate density functional calculations using a
 mixed Gaussian and plane waves approach.
 http://dx.doi.org/10.1016/j.cpc.2004.12.014


 Frigo, M; Johnson, SG. 
 PROCEEDINGS OF THE IEEE, 93 (2), 216-231 (2005). 
 The design and implementation of FFTW3.
 http://dx.doi.org/10.1109/JPROC.2004.840301


 Kolafa, J. 
 JOURNAL OF COMPUTATIONAL CHEMISTRY, 25 (3), 335-342 (2004). 
 Time-reversible always stable predictor-corrector method for molecular dynamics of polarizable molecules.
 http://dx.doi.org/10.1002/jcc.10385


 VandeVondele, J; Hutter, J. 
 JOURNAL OF CHEMICAL PHYSICS, 118 (10), 4365-4369 (2003). 
 An efficient orbital transformation method for electronic structure
 calculations.
 http://dx.doi.org/10.1063/1.1543154


 Hartwigsen, C; Goedecker, S; Hutter, J. 
 PHYSICAL REVIEW B, 58 (7), 3641-3662 (1998). 
 Relativistic separable dual-space Gaussian pseudopotentials from H to Rn.
 http://dx.doi.org/10.1103/PhysRevB.58.3641


 Lippert, G; Hutter, J; Parrinello, M. 
 MOLECULAR PHYSICS, 92 (3), 477-487 (1997). 
 A hybrid Gaussian and plane wave density functional scheme.
 http://dx.doi.org/10.1080/002689797170220


 Perdew, JP; Burke, K; Ernzerhof, M. 
 PHYSICAL REVIEW LETTERS, 77 (18), 3865-3868 (1996). 
 Generalized gradient approximation made simple.
 http://dx.doi.org/10.1103/PhysRevLett.77.3865


 Goedecker, S; Teter, M; Hutter, J. 
 PHYSICAL REVIEW B, 54 (3), 1703-1710 (1996). 
 Separable dual-space Gaussian pseudopotentials.
 http://dx.doi.org/10.1103/PhysRevB.54.1703


 -------------------------------------------------------------------------------
 -                                                                             -
 -                                T I M I N G                                  -
 -                                                                             -
 -------------------------------------------------------------------------------
 SUBROUTINE                       CALLS  ASD         SELF TIME        TOTAL TIME
                                MAXIMUM       AVERAGE  MAXIMUM  AVERAGE  MAXIMUM
 CP2K                                 1  1.0     0.05     0.05 88301.68 88302.50
 cp_geo_opt                           1  2.0     0.00     0.00 88299.81 88300.64
 geoopt_bfgs                          1  3.0     0.14     0.20 88299.81 88300.64
 cp_eval_at                         159  4.0     0.03     0.04 88212.25 88213.10
 qs_forces                          158  5.0     0.03     0.04 88021.52 88022.34
 qs_energies                        159  6.0     0.01     0.02 86248.95 86251.75
 scf_env_do_scf                     159  7.0     0.02     0.06 84636.82 84637.82
 scf_env_do_scf_inner_loop         5523  8.0     0.27     0.60 81080.08 81254.01
 rebuild_ks_matrix                 5681  9.9     0.03     0.04 50697.28 50868.43
 qs_ks_build_kohn_sham_matrix      5681 10.9     0.94     1.04 50697.25 50868.40
 qs_ks_update_qs_env               5799  9.0     0.09     0.10 49230.61 49397.01
 pw_transfer                     108103 13.6    11.78    13.77 34505.72 34876.54
 fft_wrap_pw1pw2                  96741 14.6     1.35     1.41 34201.53 34607.84
 fft_wrap_pw1pw2_150              62652 15.7  2282.76  2580.14 32878.69 33307.01
 qs_vxc_create                     5681 11.9     0.15     0.17 27926.75 28082.51
 xc_vxc_pw_create                  5681 12.9   341.80   417.59 27926.60 28082.37
 fft3d_ps                         96741 16.6 12932.73 13723.40 22676.75 23515.34
 dbcsr_multiply_generic          103044 14.0     7.89     8.43 19369.42 19567.38
 qs_scf_new_mos                    5523  9.0     0.06     0.08 17267.96 17522.76
 qs_scf_loop_do_ot                 5523 10.0     0.04     0.05 17267.90 17522.72
 qs_rho_update_rho                 5682  9.0     0.06     0.08 17394.99 17520.00
 calculate_rho_elec                5682 10.0  8450.69  8824.48 17394.93 17519.94
 multiply_cannon                 103044 15.0    16.40    18.89 16377.64 16970.11
 sum_up_and_integrate              5681 11.9    71.68    83.23 16139.30 16147.36
 integrate_v_rspace                5681 12.9 10258.97 10800.50 16067.61 16087.16
 ot_scf_mini                       5523 11.0     0.32     0.38 15814.12 16074.51
 multiply_cannon_multrec         412176 16.0 14278.57 15125.66 14280.13 15127.10
 xc_rho_set_and_dset_create        5681 13.9   128.20   142.67 14047.83 14190.81
 ot_mini                           5523 12.0     0.04     0.04 10482.98 10778.81
 density_rs2pw                     5682 11.0     0.32     0.34  8219.50  8536.05
 mp_alltoall_z22v                 96741 18.6  4834.83  7129.70  4834.83  7129.70
 qs_ot_get_derivative              5523 13.0     0.07     0.08  6693.98  6955.38
 x_to_yz                          51130 18.1  2735.23  3078.43  5236.10  6083.17
 pw_gather_p                      45611 16.1  5519.15  5698.31  5519.15  5698.31
 yz_to_x                          45611 17.1  2171.81  2264.91  4505.77  5510.80
 potential_pw2rs                   5681 13.9     6.22     7.09  4966.09  4983.49
 qs_ot_get_derivative_taylor       5409 14.0     0.22     0.26  4305.56  4563.98
 xc_functional_eval                5681 14.9     0.08     0.09  3859.88  3982.28
 pbe_lda_eval                      5681 15.9  3859.80  3982.19  3859.80  3982.19
 ot_diis_step                      5523 13.0     0.30     0.32  3756.68  3756.72
 pw_scatter_p                     51130 17.1  3655.53  3748.93  3655.53  3748.93
 apply_preconditioner_dbcsr        5799 14.0     0.02     0.03  3513.63  3599.13
 apply_single                      5799 15.0     0.02     0.03  3513.62  3599.12
 init_scf_loop                      276  8.0     0.01     0.01  3387.38  3388.25
 rs_pw_transfer                   45769 13.4     0.80     0.85  2681.36  2914.82
 mp_waitall_1                   5356131 17.5  2092.26  2331.13  2092.26  2331.13
 make_m2s                        206088 15.0     5.13     5.47  1863.59  1961.12
 pw_derive                        34086 14.4  1487.24  1830.71  1487.24  1830.71
 -------------------------------------------------------------------------------

 The number of warnings for this run is : 0
 
 -------------------------------------------------------------------------------
  **** **** ******  **  PROGRAM ENDED AT                 2023-06-08 14:18:55.060
 ***** ** ***  *** **   PROGRAM RAN ON                                sebnode129
 **    ****   ******    PROGRAM RAN BY                                    luehrs
 ***** **    ** ** **   PROGRAM PROCESS ID                               1059520
  **** **  *******  **  PROGRAM STOPPED IN /home/luehrs/PhD/Li-S_paper/Li-S-Surf
                                           ace_Reaction/Second_Lithiation_of_S8_
                                           Surface/Second_Lithiation_around_S8/S
                                           econd_Lithiation_L2/Second_Lithiation
                                           _parallel/5.S8_p
