 DBCSR| Multiplication driver                                               XSMM
 DBCSR| Multrec recursion limit                                              512
 DBCSR| Multiplication stack size                                           1000
 DBCSR| Maximum elements for images                                    UNLIMITED
 DBCSR| Multiplicative factor virtual images                                   1
 DBCSR| Multiplication size stacks                                             3
 DBCSR| Number of 3D layers                                               SINGLE
 DBCSR| Use MPI memory allocation                                              T
 DBCSR| Use RMA algorithm                                                      F
 DBCSR| Use Communication thread                                               T
 DBCSR| Communication thread load                                             87


  **** **** ******  **  PROGRAM STARTED AT               2022-03-23 14:34:21.675
 ***** ** ***  *** **   PROGRAM STARTED ON                            sebnode111
 **    ****   ******    PROGRAM STARTED BY                                luehrs
 ***** **    ** ** **   PROGRAM PROCESS ID                                 29256
  **** **  *******  **  PROGRAM STARTED IN /home/luehrs/Sulphur_Surface_Reaction
                                           /S8_2Li_position/Second_lithiation/1.
                                           S8_p

 CP2K| version string:                    CP2K version 7.0 (Development Version)
 CP2K| source code revision number:                                             
 CP2K| cp2kflags: libint fftw3 libxc parallel mpi3 scalapack xsmm libderiv_max_a
 CP2K|            m1=8 libint_max_am=9 max_contr=4
 CP2K| is freely available from                            https://www.cp2k.org/
 CP2K| Program compiled at                         Sun Jun 24 14:37:16 CEST 2018
 CP2K| Program compiled on                                            sebstorage
 CP2K| Program compiled for                                Linux-x86-64-gfortran
 CP2K| Data directory path    /home/brehm/Software_Batchnode/2018/Source/cp2k_18
 CP2K| Input file name                                               input1p.inp

 GLOBAL| Force Environment number                                              1
 GLOBAL| Basis set file name                                      ./BASIS_MOLOPT
 GLOBAL| Potential file name                                    ./GTH_POTENTIALS
 GLOBAL| MM Potential file name                                     MM_POTENTIAL
 GLOBAL| Coordinate file name                               ./1.S8_Surface_p.xyz
 GLOBAL| Method name                                                        CP2K
 GLOBAL| Project name                                                Li_reaction
 GLOBAL| Preferred FFT library                                             FFTW3
 GLOBAL| Preferred diagonalization lib.                                       SL
 GLOBAL| Run type                                                        GEO_OPT
 GLOBAL| All-to-all communication in single precision                          F
 GLOBAL| FFTs using library dependent lengths                                  F
 GLOBAL| Global print level                                                  LOW
 GLOBAL| Total number of message passing processes                            16
 GLOBAL| Number of threads for this process                                    1
 GLOBAL| This output is from process                                           0
 GLOBAL| CPU model name :  Intel(R) Xeon(R) CPU E5-2620 v4 @ 2.10GHz

 MEMORY| system memory details [Kb]
 MEMORY|                        rank 0           min           max       average
 MEMORY| MemTotal             65854832      65854832      65854832      65854832
 MEMORY| MemFree              62462896      62462896      62462896      62462896
 MEMORY| Buffers                553124        553124        553124        553124
 MEMORY| Cached                1427864       1427864       1427864       1427864
 MEMORY| Slab                   521504        521504        521504        521504
 MEMORY| SReclaimable           356692        356692        356692        356692
 MEMORY| MemLikelyFree        64800576      64800576      64800576      64800576


 GENERATE|  Preliminary Number of Bonds generated:                             0
 GENERATE|  Achieved consistency in connectivity generation.

 *******************************************************************************
 *******************************************************************************
 **                                                                           **
 **     #####                         ##              ##                      **
 **    ##   ##            ##          ##              ##                      **
 **   ##     ##                       ##            ######                    **
 **   ##     ##  ##   ##  ##   #####  ##  ##   ####   ##    #####    #####    **
 **   ##     ##  ##   ##  ##  ##      ## ##   ##      ##   ##   ##  ##   ##   **
 **   ##  ## ##  ##   ##  ##  ##      ####     ###    ##   ######   ######    **
 **    ##  ###   ##   ##  ##  ##      ## ##      ##   ##   ##       ##        **
 **     #######   #####   ##   #####  ##  ##  ####    ##    #####   ##        **
 **           ##                                                    ##        **
 **                                                                           **
 **                                                ... make the atoms dance   **
 **                                                                           **
 **            Copyright (C) by CP2K developers group (2000 - 2018)           **
 **                                                                           **
 *******************************************************************************


 TOTAL NUMBERS AND MAXIMUM NUMBERS

  Total number of            - Atomic kinds:                                   2
                             - Atoms:                                        580
                             - Shell sets:                                   580
                             - Shells:                                      2896
                             - Primitive Cartesian functions:               3476
                             - Cartesian basis functions:                   8088
                             - Spherical basis functions:                   7512

  Maximum angular momentum of- Orbital basis functions:                        2
                             - Local part of the GTH pseudopotential:          6
                             - Non-local part of the GTH pseudopotential:      2


 SCF PARAMETERS         Density guess:                                   RESTART
                        --------------------------------------------------------
                        max_scf:                                              30
                        max_scf_history:                                       0
                        max_diis:                                              4
                        --------------------------------------------------------
                        eps_scf:                                        1.00E-06
                        eps_scf_history:                                0.00E+00
                        eps_diis:                                       1.00E-01
                        eps_eigval:                                     1.00E-05
                        --------------------------------------------------------
                        level_shift [a.u.]:                                 0.00
                        --------------------------------------------------------
                        Outer loop SCF in use 
                        No variables optimised in outer loop
                        eps_scf                                         1.00E-06
                        max_scf                                               25
                        DIIS optimization
                        DIIS buffer length                                     3
                        step_size                                       5.00E-01

 BFGS| Use rational function optimization for step estimation:                NO
 BFGS| Use model Hessian for initial guess:                                  YES
 BFGS| Restart Hessian:                                                       NO
 BFGS| Trust radius:                                                       0.472

 *******************************************************************************
 ***                     STARTING GEOMETRY OPTIMIZATION                      ***
 ***                                   BFGS                                  ***
 *******************************************************************************

 Number of electrons:                                                       3468
 Number of occupied orbitals:                                               1734
 Number of molecular orbitals:                                              1734

 Number of orbital functions:                                               7512
 Number of independent orbital functions:                                   7512

 Extrapolation method: initial_guess

 *** WARNING in qs_initial_guess.F:263 :: User requested to restart the   ***
 *** wavefunction from the file named: Li_reaction-RESTART.wfn. This file ***
 *** does not exist. Please check the existence of the file or change     ***
 *** properly the value of the keyword WFN_RESTART_FILE_NAME. Calculation ***
 *** continues using ATOMIC GUESS.                                        ***



 SCF WAVEFUNCTION OPTIMIZATION

  ----------------------------------- OT ---------------------------------------
  Minimizer      : DIIS                : direct inversion
                                         in the iterative subspace
                                         using   8 DIIS vectors
                                         safer DIIS on
  Preconditioner : FULL_KINETIC        : inversion of T + eS
  Precond_solver : DEFAULT
  stepsize       :    0.15000000                  energy_gap     :    0.00010000
  eps_taylor     :   0.10000E-15                  max_taylor     :             4
  ----------------------------------- OT ---------------------------------------

  Step     Update method      Time    Convergence         Total energy    Change
  ------------------------------------------------------------------------------
     1 OT DIIS     0.15E+00   18.1     0.00645573     -5742.0727729602 -5.74E+03
     2 OT DIIS     0.15E+00   18.4     0.02701295     -5732.4474977948  9.63E+00
     3 OT DIIS     0.15E+00   18.5     0.00578770     -5795.8243407649 -6.34E+01
     4 OT DIIS     0.15E+00   18.5     0.00762623     -5813.1163080554 -1.73E+01
     5 OT DIIS     0.15E+00   18.5     0.00569745     -5829.8869231745 -1.68E+01
     6 OT DIIS     0.15E+00   18.5     0.00368757     -5842.5765084181 -1.27E+01
     7 OT DIIS     0.15E+00   18.5     0.00270927     -5859.1527051292 -1.66E+01
     8 OT DIIS     0.15E+00   18.5     0.00328650     -5868.3686032993 -9.22E+00
     9 OT DIIS     0.15E+00   18.5     0.00224552     -5875.7960963019 -7.43E+00
    10 OT DIIS     0.15E+00   18.5     0.00234235     -5880.2527001786 -4.46E+00
    11 OT DIIS     0.15E+00   18.5     0.00161393     -5884.9044769608 -4.65E+00
    12 OT DIIS     0.15E+00   18.5     0.00199734     -5888.1393789341 -3.23E+00
    13 OT DIIS     0.15E+00   18.5     0.00122947     -5891.3753060938 -3.24E+00
    14 OT DIIS     0.15E+00   18.5     0.00117051     -5894.7705790673 -3.40E+00
    15 OT DIIS     0.15E+00   18.5     0.00102864     -5897.4651780823 -2.69E+00
    16 OT DIIS     0.15E+00   18.5     0.00101536     -5899.6257828357 -2.16E+00
    17 OT DIIS     0.15E+00   18.5     0.00104157     -5901.1065331283 -1.48E+00
    18 OT DIIS     0.15E+00   18.5     0.00088705     -5902.6161346461 -1.51E+00
    19 OT DIIS     0.15E+00   18.5     0.00088672     -5903.6396892444 -1.02E+00
    20 OT DIIS     0.15E+00   18.5     0.00077520     -5904.5569042163 -9.17E-01
    21 OT DIIS     0.15E+00   18.4     0.00073280     -5905.5295873419 -9.73E-01
    22 OT DIIS     0.15E+00   18.5     0.00062954     -5906.3260537321 -7.96E-01
    23 OT DIIS     0.15E+00   18.5     0.00061054     -5906.9791702660 -6.53E-01
    24 OT DIIS     0.15E+00   18.5     0.00047770     -5907.7998708807 -8.21E-01
    25 OT DIIS     0.15E+00   18.5     0.00049152     -5908.2867892401 -4.87E-01
    26 OT DIIS     0.15E+00   18.5     0.00051816     -5908.7592543465 -4.72E-01
    27 OT DIIS     0.15E+00   18.5     0.00042474     -5909.1322530196 -3.73E-01
    28 OT DIIS     0.15E+00   18.5     0.00046889     -5909.4298241640 -2.98E-01
    29 OT DIIS     0.15E+00   18.5     0.00038497     -5909.7119347957 -2.82E-01
    30 OT DIIS     0.15E+00   18.5     0.00039972     -5909.9705194692 -2.59E-01

  Leaving inner SCF loop after reaching    30 steps.


  Electronic density on regular grids:      -3467.9999999998        0.0000000002
  Core density on regular grids:             3467.9999999952       -0.0000000048
  Total charge density on r-space grids:       -0.0000000046
  Total charge density g-space grids:          -0.0000000036

  Overlap energy of the core charge distribution:               0.00000032801693
  Self energy of the core charge distribution:             -13952.81139369569428
  Core Hamiltonian energy:                                   3147.07491546273286
  Hartree energy:                                            6201.54305287323314
  Exchange-correlation energy:                              -1303.31827661882198
  Dispersion energy:                                           -2.45881781867022

  Total energy:                                             -5909.97051946920419

  outer SCF iter =    1 RMS gradient =   0.40E-03 energy =      -5909.9705194692

  ----------------------------------- OT ---------------------------------------
  Minimizer      : DIIS                : direct inversion
                                         in the iterative subspace
                                         using   8 DIIS vectors
                                         safer DIIS on
  Preconditioner : FULL_KINETIC        : inversion of T + eS
  Precond_solver : DEFAULT
  stepsize       :    0.15000000                  energy_gap     :    0.00010000
  eps_taylor     :   0.10000E-15                  max_taylor     :             4
  ----------------------------------- OT ---------------------------------------

  Step     Update method      Time    Convergence         Total energy    Change
  ------------------------------------------------------------------------------
     1 OT DIIS     0.15E+00   41.3     0.00044801     -5910.1699789111 -1.99E-01
     2 OT DIIS     0.15E+00   18.1     0.00175055     -5910.1583373055  1.16E-02
     3 OT DIIS     0.15E+00   18.1     0.00054028     -5910.4566698584 -2.98E-01
     4 OT DIIS     0.15E+00   18.6     0.00047821     -5910.5331066624 -7.64E-02
     5 OT DIIS     0.15E+00   18.5     0.00055479     -5910.7955567156 -2.62E-01
     6 OT DIIS     0.15E+00   18.5     0.00058503     -5910.9347191134 -1.39E-01
     7 OT DIIS     0.15E+00   18.5     0.00031078     -5911.0650560682 -1.30E-01
     8 OT DIIS     0.15E+00   18.5     0.00027595     -5911.2360592266 -1.71E-01
     9 OT DIIS     0.15E+00   18.5     0.00057168     -5911.4451854180 -2.09E-01
    10 OT DIIS     0.15E+00   18.5     0.00026420     -5911.4639460629 -1.88E-02
    11 OT DIIS     0.15E+00   18.4     0.00031170     -5911.6406236295 -1.77E-01
    12 OT DIIS     0.15E+00   18.5     0.00029175     -5911.8030932820 -1.62E-01
    13 OT DIIS     0.15E+00   18.5     0.00032503     -5911.8579025025 -5.48E-02
    14 OT DIIS     0.15E+00   18.5     0.00020413     -5911.9694388101 -1.12E-01
    15 OT DIIS     0.15E+00   18.5     0.00022885     -5912.0609723167 -9.15E-02
    16 OT DIIS     0.15E+00   18.5     0.00023928     -5912.1104724245 -4.95E-02
    17 OT DIIS     0.15E+00   18.5     0.00022684     -5912.1497615364 -3.93E-02
    18 OT DIIS     0.15E+00   18.5     0.00017693     -5912.2020218844 -5.23E-02
    19 OT DIIS     0.15E+00   18.5     0.00016193     -5912.2471483522 -4.51E-02
    20 OT DIIS     0.15E+00   18.5     0.00020594     -5912.2674201062 -2.03E-02
    21 OT DIIS     0.15E+00   18.5     0.00013437     -5912.3030516245 -3.56E-02
    22 OT DIIS     0.15E+00   18.5     0.00013154     -5912.3253908015 -2.23E-02
    23 OT DIIS     0.15E+00   18.5     0.00019713     -5912.3384189939 -1.30E-02
    24 OT DIIS     0.15E+00   18.5     0.00012223     -5912.3572383890 -1.88E-02
    25 OT DIIS     0.15E+00   18.5     0.00014945     -5912.3766340978 -1.94E-02
    26 OT DIIS     0.15E+00   18.5     0.00014380     -5912.3889161612 -1.23E-02
    27 OT DIIS     0.15E+00   18.5     0.00011818     -5912.4002747886 -1.14E-02
    28 OT DIIS     0.15E+00   18.5     0.00012898     -5912.4110428499 -1.08E-02
    29 OT DIIS     0.15E+00   18.5     0.00018871     -5912.4200830668 -9.04E-03
    30 OT DIIS     0.15E+00   18.5     0.00010047     -5912.4285926331 -8.51E-03

  Leaving inner SCF loop after reaching    30 steps.


  Electronic density on regular grids:      -3467.9999999997        0.0000000003
  Core density on regular grids:             3467.9999999952       -0.0000000048
  Total charge density on r-space grids:       -0.0000000045
  Total charge density g-space grids:          -0.0000000036

  Overlap energy of the core charge distribution:               0.00000032801693
  Self energy of the core charge distribution:             -13952.81139369569428
  Core Hamiltonian energy:                                   3143.81420334600625
  Hartree energy:                                            6202.65208118765986
  Exchange-correlation energy:                              -1303.62466598036940
  Dispersion energy:                                           -2.45881781867022

  Total energy:                                             -5912.42859263305127

  outer SCF iter =    2 RMS gradient =   0.10E-03 energy =      -5912.4285926331

  ----------------------------------- OT ---------------------------------------
  Minimizer      : DIIS                : direct inversion
                                         in the iterative subspace
                                         using   8 DIIS vectors
                                         safer DIIS on
  Preconditioner : FULL_KINETIC        : inversion of T + eS
  Precond_solver : DEFAULT
  stepsize       :    0.15000000                  energy_gap     :    0.00010000
  eps_taylor     :   0.10000E-15                  max_taylor     :             4
  ----------------------------------- OT ---------------------------------------

  Step     Update method      Time    Convergence         Total energy    Change
  ------------------------------------------------------------------------------
     1 OT DIIS     0.15E+00   42.1     0.00011980     -5912.4289659941 -3.73E-04
     2 OT DIIS     0.15E+00   18.0     0.00065695     -5912.3970368318  3.19E-02
     3 OT DIIS     0.15E+00   18.0     0.00023970     -5912.4368720444 -3.98E-02
     4 OT DIIS     0.15E+00   18.1     0.00007611     -5912.4445294603 -7.66E-03
     5 OT DIIS     0.15E+00   18.1     0.00013838     -5912.4509971931 -6.47E-03
     6 OT DIIS     0.15E+00   18.1     0.00011337     -5912.4593507829 -8.35E-03
     7 OT DIIS     0.15E+00   18.1     0.00006657     -5912.4752270813 -1.59E-02
     8 OT DIIS     0.15E+00   18.1     0.00006043     -5912.4838321484 -8.61E-03
     9 OT DIIS     0.15E+00   18.4     0.00010796     -5912.4949434910 -1.11E-02
    10 OT DIIS     0.15E+00   18.5     0.00006500     -5912.4987279854 -3.78E-03
    11 OT DIIS     0.15E+00   18.5     0.00005968     -5912.5054356956 -6.71E-03
    12 OT DIIS     0.15E+00   18.5     0.00008890     -5912.5175781508 -1.21E-02
    13 OT DIIS     0.15E+00   18.5     0.00006035     -5912.5238565700 -6.28E-03
    14 OT DIIS     0.15E+00   18.5     0.00006361     -5912.5297574424 -5.90E-03
    15 OT DIIS     0.15E+00   18.5     0.00005791     -5912.5329726186 -3.22E-03
    16 OT DIIS     0.15E+00   18.5     0.00006317     -5912.5350348199 -2.06E-03
    17 OT DIIS     0.15E+00   18.5     0.00005166     -5912.5373882918 -2.35E-03
    18 OT SD       0.15E+00   18.5     0.00004885     -5912.5389048156 -1.52E-03
    19 OT SD       0.15E+00   18.5     0.00008259     -5912.5431103778 -4.21E-03
    20 OT DIIS     0.15E+00   18.5     0.00070430     -5912.5068071057  3.63E-02
    21 OT SD       0.15E+00   18.4     0.00005159     -5912.5373487586 -3.05E-02
    22 OT DIIS     0.15E+00   18.5     0.00017287     -5912.5395338982 -2.19E-03
    23 OT DIIS     0.15E+00   18.5     0.00005643     -5912.5397480976 -2.14E-04
    24 OT SD       0.15E+00   18.5     0.00005302     -5912.5412822105 -1.53E-03
    25 OT SD       0.15E+00   18.5     0.00020222     -5912.5425879206 -1.31E-03
    26 OT DIIS     0.15E+00   18.5     0.00201464     -5912.1987358497  3.44E-01
    27 OT DIIS     0.15E+00   18.5     0.00005037     -5912.5328646203 -3.34E-01
    28 OT SD       0.15E+00   18.5     0.00005765     -5912.5409654593 -8.10E-03
    29 OT DIIS     0.15E+00   18.5     0.00025589     -5912.5396968010  1.27E-03
    30 OT SD       0.15E+00   18.5     0.00005233     -5912.5351128241  4.58E-03

  Leaving inner SCF loop after reaching    30 steps.


  Electronic density on regular grids:      -3467.9999999998        0.0000000002
  Core density on regular grids:             3467.9999999952       -0.0000000048
  Total charge density on r-space grids:       -0.0000000046
  Total charge density g-space grids:          -0.0000000035

  Overlap energy of the core charge distribution:               0.00000032801693
  Self energy of the core charge distribution:             -13952.81139369569428
  Core Hamiltonian energy:                                   3143.70522554182389
  Hartree energy:                                            6202.69235980000030
  Exchange-correlation energy:                              -1303.66248697957008
  Dispersion energy:                                           -2.45881781867022

  Total energy:                                             -5912.53511282409545

  outer SCF iter =    3 RMS gradient =   0.52E-04 energy =      -5912.5351128241

  ----------------------------------- OT ---------------------------------------
  Minimizer      : DIIS                : direct inversion
                                         in the iterative subspace
                                         using   8 DIIS vectors
                                         safer DIIS on
  Preconditioner : FULL_KINETIC        : inversion of T + eS
  Precond_solver : DEFAULT
  stepsize       :    0.15000000                  energy_gap     :    0.00010000
  eps_taylor     :   0.10000E-15                  max_taylor     :             4
  ----------------------------------- OT ---------------------------------------

  Step     Update method      Time    Convergence         Total energy    Change
  ------------------------------------------------------------------------------
     1 OT DIIS     0.15E+00   41.3     0.00015294     -5912.5375353474 -2.42E-03
     2 OT DIIS     0.15E+00   18.1     0.00141946     -5912.3673953556  1.70E-01
     3 OT DIIS     0.15E+00   18.0     0.00013542     -5912.5423796169 -1.75E-01
     4 OT DIIS     0.15E+00   18.0     0.00007451     -5912.5458032237 -3.42E-03
     5 OT DIIS     0.15E+00   18.1     0.00005680     -5912.5468635199 -1.06E-03
     6 OT SD       0.15E+00   18.1     0.00005182     -5912.5476264581 -7.63E-04
     7 OT SD       0.15E+00   18.1     0.00006532     -5912.5527066164 -5.08E-03
     8 OT SD       0.15E+00   18.4     0.00037724     -5912.5458268133  6.88E-03
     9 OT DIIS     0.15E+00   18.2     0.00402360     -5911.2639597168  1.28E+00
    10 OT SD       0.15E+00   18.1     0.00006794     -5912.5481423645 -1.28E+00
    11 OT DIIS     0.15E+00   18.0     0.00043600     -5912.5369951059  1.11E-02
    12 OT DIIS     0.15E+00   18.1     0.00008619     -5912.5237554761  1.32E-02
    13 OT SD       0.15E+00   18.4     0.00012065     -5912.5373299667 -1.36E-02
    14 OT DIIS     0.15E+00   18.2     0.00115876     -5912.4298483347  1.07E-01
    15 OT DIIS     0.15E+00   18.1     0.00005560     -5912.5174147377 -8.76E-02
    16 OT DIIS     0.15E+00   18.1     0.00006672     -5912.5189706709 -1.56E-03
    17 OT SD       0.15E+00   18.2     0.00005815     -5912.5204229158 -1.45E-03
    18 OT DIIS     0.15E+00   18.0     0.00022606     -5912.5171688928  3.25E-03
    19 OT SD       0.15E+00   18.1     0.00006513     -5912.5218601733 -4.69E-03
    20 OT DIIS     0.15E+00   18.1     0.00033330     -5912.5122152423  9.64E-03
    21 OT DIIS     0.15E+00   18.0     0.00006481     -5912.5142190976 -2.00E-03
    22 OT SD       0.15E+00   18.0     0.00006961     -5912.5225438684 -8.32E-03
    23 OT DIIS     0.15E+00   18.1     0.00056648     -5912.4970731168  2.55E-02
    24 OT SD       0.15E+00   18.1     0.00008045     -5912.5230346215 -2.60E-02
    25 OT DIIS     0.15E+00   18.1     0.00072132     -5912.4807673011  4.23E-02
    26 OT DIIS     0.15E+00   18.1     0.00004904     -5912.5239404756 -4.32E-02
    27 OT DIIS     0.15E+00   18.1     0.00007591     -5912.5240994815 -1.59E-04
    28 OT DIIS     0.15E+00   18.1     0.00004615     -5912.5237727620  3.27E-04
    29 OT DIIS     0.15E+00   18.4     0.00006196     -5912.5282597105 -4.49E-03
    30 OT SD       0.15E+00   18.5     0.00009763     -5912.5305026518 -2.24E-03

  Leaving inner SCF loop after reaching    30 steps.


  Electronic density on regular grids:      -3467.9999999998        0.0000000002
  Core density on regular grids:             3467.9999999952       -0.0000000048
  Total charge density on r-space grids:       -0.0000000046
  Total charge density g-space grids:          -0.0000000035

  Overlap energy of the core charge distribution:               0.00000032801693
  Self energy of the core charge distribution:             -13952.81139369569428
  Core Hamiltonian energy:                                   3143.71222640911401
  Hartree energy:                                            6202.69161760683164
  Exchange-correlation energy:                              -1303.66413548140872
  Dispersion energy:                                           -2.45881781867022

  Total energy:                                             -5912.53050265181173

  outer SCF iter =    4 RMS gradient =   0.98E-04 energy =      -5912.5305026518

  ----------------------------------- OT ---------------------------------------
  Minimizer      : DIIS                : direct inversion
                                         in the iterative subspace
                                         using   8 DIIS vectors
                                         safer DIIS on
  Preconditioner : FULL_KINETIC        : inversion of T + eS
  Precond_solver : DEFAULT
  stepsize       :    0.15000000                  energy_gap     :    0.00010000
  eps_taylor     :   0.10000E-15                  max_taylor     :             4
  ----------------------------------- OT ---------------------------------------

  Step     Update method      Time    Convergence         Total energy    Change
  ------------------------------------------------------------------------------
     1 OT DIIS     0.15E+00   42.6     0.00081775     -5912.4562567897  7.42E-02
     2 OT DIIS     0.15E+00   18.4     0.00421455     -5908.4714367314  3.98E+00
     3 OT DIIS     0.15E+00   18.1     0.00182824     -5912.1474580396 -3.68E+00
     4 OT DIIS     0.15E+00   18.1     0.00037310     -5912.5125285289 -3.65E-01
     5 OT DIIS     0.15E+00   18.1     0.00023543     -5912.5265537456 -1.40E-02
     6 OT DIIS     0.15E+00   18.1     0.00014188     -5912.5317714558 -5.22E-03
     7 OT DIIS     0.15E+00   18.1     0.00008546     -5912.5336910823 -1.92E-03
     8 OT DIIS     0.15E+00   18.1     0.00007146     -5912.5343208471 -6.30E-04
     9 OT DIIS     0.15E+00   18.1     0.00004027     -5912.5354024809 -1.08E-03
    10 OT DIIS     0.15E+00   18.1     0.00002927     -5912.5363785933 -9.76E-04
    11 OT DIIS     0.15E+00   18.1     0.00002323     -5912.5368385015 -4.60E-04
    12 OT DIIS     0.15E+00   18.1     0.00002421     -5912.5376643999 -8.26E-04
    13 OT DIIS     0.15E+00   18.1     0.00002358     -5912.5381225668 -4.58E-04
    14 OT DIIS     0.15E+00   18.1     0.00002460     -5912.5394010941 -1.28E-03
    15 OT DIIS     0.15E+00   18.1     0.00002555     -5912.5403030716 -9.02E-04
    16 OT DIIS     0.15E+00   18.1     0.00002610     -5912.5417622887 -1.46E-03
    17 OT DIIS     0.15E+00   18.1     0.00002929     -5912.5436714028 -1.91E-03
    18 OT SD       0.15E+00   18.1     0.00003188     -5912.5458152692 -2.14E-03
    19 OT DIIS     0.15E+00   18.1     0.00019452     -5912.5425659026  3.25E-03
    20 OT DIIS     0.15E+00   18.1     0.00002257     -5912.5487658664 -6.20E-03
    21 OT DIIS     0.15E+00   17.9     0.00002069     -5912.5512562821 -2.49E-03
    22 OT DIIS     0.15E+00   18.1     0.00002230     -5912.5520603087 -8.04E-04
    23 OT DIIS     0.15E+00   18.4     0.00002010     -5912.5535387468 -1.48E-03
    24 OT DIIS     0.15E+00   18.5     0.00002034     -5912.5551525151 -1.61E-03
    25 OT DIIS     0.15E+00   18.5     0.00001949     -5912.5555517872 -3.99E-04
    26 OT DIIS     0.15E+00   18.5     0.00002082     -5912.5561889889 -6.37E-04
    27 OT DIIS     0.15E+00   18.5     0.00001883     -5912.5572044644 -1.02E-03
    28 OT DIIS     0.15E+00   18.5     0.00001894     -5912.5574368467 -2.32E-04
    29 OT SD       0.15E+00   18.5     0.00001878     -5912.5574457321 -8.89E-06
    30 OT SD       0.15E+00   18.6     0.00002182     -5912.5581186452 -6.73E-04

  Leaving inner SCF loop after reaching    30 steps.


  Electronic density on regular grids:      -3467.9999999997        0.0000000003
  Core density on regular grids:             3467.9999999952       -0.0000000048
  Total charge density on r-space grids:       -0.0000000046
  Total charge density g-space grids:          -0.0000000036

  Overlap energy of the core charge distribution:               0.00000032801693
  Self energy of the core charge distribution:             -13952.81139369569428
  Core Hamiltonian energy:                                   3143.63897445232669
  Hartree energy:                                            6202.71702823050782
  Exchange-correlation energy:                              -1303.64391014166040
  Dispersion energy:                                           -2.45881781867022

  Total energy:                                             -5912.55811864517364

  outer SCF iter =    5 RMS gradient =   0.22E-04 energy =      -5912.5581186452

  ----------------------------------- OT ---------------------------------------
  Minimizer      : DIIS                : direct inversion
                                         in the iterative subspace
                                         using   8 DIIS vectors
                                         safer DIIS on
  Preconditioner : FULL_KINETIC        : inversion of T + eS
  Precond_solver : DEFAULT
  stepsize       :    0.15000000                  energy_gap     :    0.00010000
  eps_taylor     :   0.10000E-15                  max_taylor     :             4
  ----------------------------------- OT ---------------------------------------

  Step     Update method      Time    Convergence         Total energy    Change
  ------------------------------------------------------------------------------
     1 OT DIIS     0.15E+00   41.1     0.00007382     -5912.5580638084  5.48E-05
     2 OT DIIS     0.15E+00   18.0     0.00042188     -5912.5349384150  2.31E-02
     3 OT DIIS     0.15E+00   18.0     0.00005446     -5912.5593393845 -2.44E-02
     4 OT DIIS     0.15E+00   18.1     0.00002250     -5912.5597867283 -4.47E-04
     5 OT DIIS     0.15E+00   18.1     0.00002036     -5912.5601579934 -3.71E-04
     6 OT SD       0.15E+00   18.1     0.00001988     -5912.5603143399 -1.56E-04
     7 OT SD       0.15E+00   18.1     0.00002094     -5912.5610881286 -7.74E-04
     8 OT SD       0.15E+00   18.1     0.00003844     -5912.5617717307 -6.84E-04
     9 OT DIIS     0.15E+00   18.1     0.00021475     -5912.5569504773  4.82E-03
    10 OT SD       0.15E+00   18.1     0.00001970     -5912.5569298976  2.06E-05
    11 OT SD       0.15E+00   18.0     0.00005697     -5912.5571981447 -2.68E-04
    12 OT DIIS     0.15E+00   18.1     0.00037706     -5912.5408277515  1.64E-02
    13 OT DIIS     0.15E+00   18.1     0.00002307     -5912.5561975415 -1.54E-02
    14 OT DIIS     0.15E+00   18.1     0.00002442     -5912.5560777039  1.20E-04
    15 OT DIIS     0.15E+00   18.1     0.00001889     -5912.5562280117 -1.50E-04
    16 OT SD       0.15E+00   18.1     0.00001665     -5912.5570567225 -8.29E-04
    17 OT DIIS     0.15E+00   18.1     0.00002728     -5912.5574402810 -3.84E-04
    18 OT DIIS     0.15E+00   18.1     0.00001667     -5912.5576496835 -2.09E-04
    19 OT DIIS     0.15E+00   18.1     0.00001601     -5912.5583936048 -7.44E-04
    20 OT DIIS     0.15E+00   18.1     0.00001618     -5912.5589952550 -6.02E-04
    21 OT DIIS     0.15E+00   18.1     0.00001569     -5912.5596395194 -6.44E-04
    22 OT DIIS     0.15E+00   18.1     0.00001505     -5912.5612126089 -1.57E-03
    23 OT DIIS     0.15E+00   18.1     0.00001685     -5912.5612113774  1.23E-06
    24 OT DIIS     0.15E+00   18.1     0.00001542     -5912.5620494561 -8.38E-04
    25 OT DIIS     0.15E+00   18.1     0.00001446     -5912.5632860195 -1.24E-03
    26 OT DIIS     0.15E+00   18.1     0.00001432     -5912.5637656073 -4.80E-04
    27 OT DIIS     0.15E+00   18.1     0.00001496     -5912.5642442268 -4.79E-04
    28 OT DIIS     0.15E+00   18.1     0.00001400     -5912.5648706642 -6.26E-04
    29 OT DIIS     0.15E+00   18.1     0.00001390     -5912.5652836393 -4.13E-04
    30 OT DIIS     0.15E+00   18.1     0.00001361     -5912.5656305820 -3.47E-04

  Leaving inner SCF loop after reaching    30 steps.


  Electronic density on regular grids:      -3468.0000008538       -0.0000008538
  Core density on regular grids:             3467.9999999952       -0.0000000048
  Total charge density on r-space grids:       -0.0000008586
  Total charge density g-space grids:          -0.0000008577

  Overlap energy of the core charge distribution:               0.00000032801693
  Self energy of the core charge distribution:             -13952.81139369569428
  Core Hamiltonian energy:                                   3143.62934587393465
  Hartree energy:                                            6202.71716841307716
  Exchange-correlation energy:                              -1303.64193368269480
  Dispersion energy:                                           -2.45881781867022

  Total energy:                                             -5912.56563058203119

  outer SCF iter =    6 RMS gradient =   0.14E-04 energy =      -5912.5656305820

  ----------------------------------- OT ---------------------------------------
  Minimizer      : DIIS                : direct inversion
                                         in the iterative subspace
                                         using   8 DIIS vectors
                                         safer DIIS on
  Preconditioner : FULL_KINETIC        : inversion of T + eS
  Precond_solver : DEFAULT
  stepsize       :    0.15000000                  energy_gap     :    0.00010000
  eps_taylor     :   0.10000E-15                  max_taylor     :             4
  ----------------------------------- OT ---------------------------------------

  Step     Update method      Time    Convergence         Total energy    Change
  ------------------------------------------------------------------------------
     1 OT DIIS     0.15E+00   41.7     0.00001367     -5912.5658213305 -1.91E-04
     2 OT DIIS     0.15E+00   17.8     0.00001750     -5912.5661613871 -3.40E-04
     3 OT DIIS     0.15E+00   18.0     0.00001367     -5912.5662316039 -7.02E-05
     4 OT DIIS     0.15E+00   18.1     0.00001357     -5912.5663069172 -7.53E-05
     5 OT SD       0.15E+00   18.1     0.00001357     -5912.5663107841 -3.87E-06
     6 OT SD       0.15E+00   18.1     0.00001426     -5912.5666683659 -3.58E-04
     7 OT SD       0.15E+00   18.1     0.00002997     -5912.5669440652 -2.76E-04
     8 OT DIIS     0.15E+00   18.1     0.00017896     -5912.5634113814  3.53E-03
     9 OT SD       0.15E+00   18.1     0.00001386     -5912.5653591984 -1.95E-03
    10 OT SD       0.15E+00   17.9     0.00002323     -5912.5656464359 -2.87E-04
    11 OT DIIS     0.15E+00   18.1     0.00011185     -5912.5643256900  1.32E-03
    12 OT SD       0.15E+00   18.0     0.00001430     -5912.5654384956 -1.11E-03
    13 OT DIIS     0.15E+00   17.9     0.00003707     -5912.5655960647 -1.58E-04
    14 OT DIIS     0.15E+00   18.1     0.00001521     -5912.5656071844 -1.11E-05
    15 OT DIIS     0.15E+00   17.9     0.00001355     -5912.5661044765 -4.97E-04
    16 OT DIIS     0.15E+00   17.9     0.00001300     -5912.5661895665 -8.51E-05
    17 OT DIIS     0.15E+00   18.1     0.00001356     -5912.5664937857 -3.04E-04
    18 OT DIIS     0.15E+00   18.1     0.00001192     -5912.5674515028 -9.58E-04
    19 OT DIIS     0.15E+00   18.1     0.00001248     -5912.5680136636 -5.62E-04
    20 OT DIIS     0.15E+00   18.0     0.00001395     -5912.5686416706 -6.28E-04
    21 OT DIIS     0.15E+00   17.9     0.00001188     -5912.5688035487 -1.62E-04
    22 OT DIIS     0.15E+00   18.1     0.00001256     -5912.5693698808 -5.66E-04
    23 OT DIIS     0.15E+00   18.1     0.00001401     -5912.5696805685 -3.11E-04
    24 OT DIIS     0.15E+00   18.0     0.00001247     -5912.5699012297 -2.21E-04
    25 OT DIIS     0.15E+00   18.0     0.00001155     -5912.5703274650 -4.26E-04
    26 OT DIIS     0.15E+00   18.1     0.00001158     -5912.5705652763 -2.38E-04
    27 OT DIIS     0.15E+00   18.1     0.00001128     -5912.5709610357 -3.96E-04
    28 OT DIIS     0.15E+00   18.1     0.00001133     -5912.5711286787 -1.68E-04
    29 OT DIIS     0.15E+00   18.1     0.00001121     -5912.5712925723 -1.64E-04
    30 OT DIIS     0.15E+00   18.0     0.00001126     -5912.5713944181 -1.02E-04

  Leaving inner SCF loop after reaching    30 steps.


  Electronic density on regular grids:      -3468.0000000546       -0.0000000546
  Core density on regular grids:             3467.9999999952       -0.0000000048
  Total charge density on r-space grids:       -0.0000000594
  Total charge density g-space grids:          -0.0000000585

  Overlap energy of the core charge distribution:               0.00000032801693
  Self energy of the core charge distribution:             -13952.81139369569428
  Core Hamiltonian energy:                                   3143.62251759142055
  Hartree energy:                                            6202.71625777527697
  Exchange-correlation energy:                              -1303.63995859848364
  Dispersion energy:                                           -2.45881781867022

  Total energy:                                             -5912.57139441813433

  outer SCF iter =    7 RMS gradient =   0.11E-04 energy =      -5912.5713944181

  ----------------------------------- OT ---------------------------------------
  Minimizer      : DIIS                : direct inversion
                                         in the iterative subspace
                                         using   8 DIIS vectors
                                         safer DIIS on
  Preconditioner : FULL_KINETIC        : inversion of T + eS
  Precond_solver : DEFAULT
  stepsize       :    0.15000000                  energy_gap     :    0.00010000
  eps_taylor     :   0.10000E-15                  max_taylor     :             4
  ----------------------------------- OT ---------------------------------------

  Step     Update method      Time    Convergence         Total energy    Change
  ------------------------------------------------------------------------------
     1 OT DIIS     0.15E+00   40.5     0.00001162     -5912.5715617308 -1.67E-04
     2 OT DIIS     0.15E+00   17.8     0.00002093     -5912.5717718672 -2.10E-04
     3 OT DIIS     0.15E+00   17.8     0.00001163     -5912.5718437726 -7.19E-05
     4 OT SD       0.15E+00   18.1     0.00001134     -5912.5718832908 -3.95E-05
     5 OT SD       0.15E+00   18.1     0.00001163     -5912.5721341429 -2.51E-04
     6 OT SD       0.15E+00   18.1     0.00001740     -5912.5723676213 -2.33E-04
     7 OT DIIS     0.15E+00   18.1     0.00008856     -5912.5716971582  6.70E-04
     8 OT SD       0.15E+00   18.0     0.00001127     -5912.5710918974  6.05E-04
     9 OT SD       0.15E+00   17.9     0.00001424     -5912.5713170467 -2.25E-04
    10 OT DIIS     0.15E+00   17.9     0.00004797     -5912.5712396371  7.74E-05
    11 OT DIIS     0.15E+00   17.8     0.00001299     -5912.5710863627  1.53E-04
    12 OT SD       0.15E+00   17.9     0.00001243     -5912.5711694375 -8.31E-05
    13 OT DIIS     0.15E+00   18.1     0.00004804     -5912.5711365997  3.28E-05
    14 OT DIIS     0.15E+00   18.1     0.00001173     -5912.5714915761 -3.55E-04
    15 OT DIIS     0.15E+00   18.1     0.00001051     -5912.5715373846 -4.58E-05
    16 OT DIIS     0.15E+00   18.1     0.00001073     -5912.5719108464 -3.73E-04
    17 OT DIIS     0.15E+00   18.1     0.00001198     -5912.5725006169 -5.90E-04
    18 OT DIIS     0.15E+00   18.1     0.00001047     -5912.5725521093 -5.15E-05
    19 OT DIIS     0.15E+00   18.1     0.00001029     -5912.5729940824 -4.42E-04
    20 OT DIIS     0.15E+00   18.1     0.00001177     -5912.5733357335 -3.42E-04
    21 OT DIIS     0.15E+00   18.1     0.00001006     -5912.5735722342 -2.37E-04
    22 OT DIIS     0.15E+00   18.1     0.00001044     -5912.5737631018 -1.91E-04
    23 OT DIIS     0.15E+00   18.1     0.00001039     -5912.5739393617 -1.76E-04
    24 OT DIIS     0.15E+00   18.1     0.00000980     -5912.5742221644 -2.83E-04
    25 OT DIIS     0.15E+00   18.1     0.00000985     -5912.5744311473 -2.09E-04
    26 OT DIIS     0.15E+00   18.1     0.00000976     -5912.5746625104 -2.31E-04
    27 OT DIIS     0.15E+00   18.1     0.00000974     -5912.5747578511 -9.53E-05
    28 OT DIIS     0.15E+00   18.1     0.00000971     -5912.5747949459 -3.71E-05
    29 OT SD       0.15E+00   18.1     0.00000972     -5912.5748315182 -3.66E-05
    30 OT SD       0.15E+00   18.1     0.00001180     -5912.5750089513 -1.77E-04

  Leaving inner SCF loop after reaching    30 steps.


  Electronic density on regular grids:      -3468.0000000282       -0.0000000282
  Core density on regular grids:             3467.9999999952       -0.0000000048
  Total charge density on r-space grids:       -0.0000000330
  Total charge density g-space grids:          -0.0000000321

  Overlap energy of the core charge distribution:               0.00000032801693
  Self energy of the core charge distribution:             -13952.81139369569428
  Core Hamiltonian energy:                                   3143.62202822706149
  Hartree energy:                                            6202.71286600990243
  Exchange-correlation energy:                              -1303.63969200194424
  Dispersion energy:                                           -2.45881781867022

  Total energy:                                             -5912.57500895132944

  outer SCF iter =    8 RMS gradient =   0.12E-04 energy =      -5912.5750089513

  ----------------------------------- OT ---------------------------------------
  Minimizer      : DIIS                : direct inversion
                                         in the iterative subspace
                                         using   8 DIIS vectors
                                         safer DIIS on
  Preconditioner : FULL_KINETIC        : inversion of T + eS
  Precond_solver : DEFAULT
  stepsize       :    0.15000000                  energy_gap     :    0.00010000
  eps_taylor     :   0.10000E-15                  max_taylor     :             4
  ----------------------------------- OT ---------------------------------------

  Step     Update method      Time    Convergence         Total energy    Change
  ------------------------------------------------------------------------------
     1 OT DIIS     0.15E+00   41.8     0.00004912     -5912.5749282245  8.07E-05
     2 OT DIIS     0.15E+00   18.0     0.00035979     -5912.5605365435  1.44E-02
     3 OT DIIS     0.15E+00   17.8     0.00001852     -5912.5753675400 -1.48E-02
     4 OT DIIS     0.15E+00   18.1     0.00001108     -5912.5754395075 -7.20E-05
     5 OT SD       0.15E+00   18.1     0.00000992     -5912.5754719947 -3.25E-05
     6 OT SD       0.15E+00   18.1     0.00001045     -5912.5756625218 -1.91E-04
     7 OT SD       0.15E+00   18.1     0.00001723     -5912.5758273117 -1.65E-04
     8 OT SD       0.15E+00   18.1     0.00006784     -5912.5753159667  5.11E-04
     9 OT DIIS     0.15E+00   18.1     0.00033788     -5912.5580714816  1.72E-02
    10 OT DIIS     0.15E+00   18.1     0.00000951     -5912.5744630636 -1.64E-02
    11 OT DIIS     0.15E+00   18.1     0.00001050     -5912.5744792255 -1.62E-05
    12 OT DIIS     0.15E+00   18.1     0.00000955     -5912.5744982693 -1.90E-05
    13 OT SD       0.15E+00   18.1     0.00001022     -5912.5746456454 -1.47E-04
    14 OT DIIS     0.15E+00   18.0     0.00003051     -5912.5747064202 -6.08E-05
    15 OT DIIS     0.15E+00   17.8     0.00001060     -5912.5750115394 -3.05E-04
    16 OT DIIS     0.15E+00   17.9     0.00001000     -5912.5750450104 -3.35E-05
    17 OT DIIS     0.15E+00   18.1     0.00000913     -5912.5754788102 -4.34E-04
    18 OT DIIS     0.15E+00   18.1     0.00000980     -5912.5756884919 -2.10E-04
    19 OT DIIS     0.15E+00   18.0     0.00000908     -5912.5761094546 -4.21E-04
    20 OT DIIS     0.15E+00   18.0     0.00000915     -5912.5763057146 -1.96E-04
    21 OT DIIS     0.15E+00   17.9     0.00000915     -5912.5766159366 -3.10E-04
    22 OT DIIS     0.15E+00   18.1     0.00000884     -5912.5768977641 -2.82E-04
    23 OT DIIS     0.15E+00   18.1     0.00000880     -5912.5772323361 -3.35E-04
    24 OT DIIS     0.15E+00   18.1     0.00000895     -5912.5772439211 -1.16E-05
    25 OT DIIS     0.15E+00   18.0     0.00000842     -5912.5774466607 -2.03E-04
    26 OT DIIS     0.15E+00   18.1     0.00000864     -5912.5776578473 -2.11E-04
    27 OT SD       0.15E+00   18.1     0.00000829     -5912.5776671957 -9.35E-06
    28 OT SD       0.15E+00   18.1     0.00000956     -5912.5777974184 -1.30E-04
    29 OT SD       0.15E+00   18.1     0.00003329     -5912.5778061004 -8.68E-06
    30 OT DIIS     0.15E+00   18.0     0.00022972     -5912.5718029721  6.00E-03

  Leaving inner SCF loop after reaching    30 steps.


  Electronic density on regular grids:      -3468.0000000221       -0.0000000221
  Core density on regular grids:             3467.9999999952       -0.0000000048
  Total charge density on r-space grids:       -0.0000000269
  Total charge density g-space grids:          -0.0000000260

  Overlap energy of the core charge distribution:               0.00000032801693
  Self energy of the core charge distribution:             -13952.81139369569428
  Core Hamiltonian energy:                                   3143.62667542354302
  Hartree energy:                                            6202.70990730700578
  Exchange-correlation energy:                              -1303.63817451627756
  Dispersion energy:                                           -2.45881781867022

  Total energy:                                             -5912.57180297207651

  outer SCF iter =    9 RMS gradient =   0.23E-03 energy =      -5912.5718029721

  ----------------------------------- OT ---------------------------------------
  Minimizer      : DIIS                : direct inversion
                                         in the iterative subspace
                                         using   8 DIIS vectors
                                         safer DIIS on
  Preconditioner : FULL_KINETIC        : inversion of T + eS
  Precond_solver : DEFAULT
  stepsize       :    0.15000000                  energy_gap     :    0.00010000
  eps_taylor     :   0.10000E-15                  max_taylor     :             4
  ----------------------------------- OT ---------------------------------------

  Step     Update method      Time    Convergence         Total energy    Change
  ------------------------------------------------------------------------------
     1 OT DIIS     0.15E+00   40.5     0.00000839     -5912.5774389843 -5.64E-03
     2 OT DIIS     0.15E+00   17.7     0.00001456     -5912.5775537447 -1.15E-04
     3 OT DIIS     0.15E+00   17.8     0.00000833     -5912.5775867228 -3.30E-05
     4 OT DIIS     0.15E+00   17.8     0.00000823     -5912.5776243894 -3.77E-05
     5 OT SD       0.15E+00   17.9     0.00000821     -5912.5776425457 -1.82E-05
     6 OT SD       0.15E+00   18.1     0.00000825     -5912.5777742919 -1.32E-04
     7 OT SD       0.15E+00   18.1     0.00000858     -5912.5779060841 -1.32E-04
     8 OT SD       0.15E+00   18.1     0.00001458     -5912.5780194973 -1.13E-04
     9 OT DIIS     0.15E+00   18.1     0.00007310     -5912.5774708447  5.49E-04
    10 OT SD       0.15E+00   17.8     0.00000857     -5912.5774299746  4.09E-05
    11 OT DIIS     0.15E+00   17.8     0.00002106     -5912.5775127661 -8.28E-05
    12 OT DIIS     0.15E+00   18.1     0.00000894     -5912.5776218147 -1.09E-04
    13 OT SD       0.15E+00   18.1     0.00001082     -5912.5779143373 -2.93E-04
    14 OT DIIS     0.15E+00   18.1     0.00005788     -5912.5776682243  2.46E-04
    15 OT DIIS     0.15E+00   18.1     0.00000881     -5912.5780034959 -3.35E-04
    16 OT DIIS     0.15E+00   18.1     0.00000826     -5912.5788577556 -8.54E-04
    17 OT DIIS     0.15E+00   18.1     0.00000739     -5912.5791520193 -2.94E-04
    18 OT DIIS     0.15E+00   18.1     0.00000757     -5912.5795710843 -4.19E-04
    19 OT DIIS     0.15E+00   18.1     0.00000765     -5912.5800097668 -4.39E-04
    20 OT DIIS     0.15E+00   18.0     0.00000790     -5912.5801578361 -1.48E-04
    21 OT DIIS     0.15E+00   18.0     0.00000871     -5912.5802221721 -6.43E-05
    22 OT DIIS     0.15E+00   18.0     0.00000722     -5912.5807587591 -5.37E-04
    23 OT DIIS     0.15E+00   18.1     0.00000701     -5912.5809850767 -2.26E-04
    24 OT DIIS     0.15E+00   18.0     0.00000727     -5912.5811487360 -1.64E-04
    25 OT DIIS     0.15E+00   18.0     0.00000681     -5912.5813823072 -2.34E-04
    26 OT DIIS     0.15E+00   18.1     0.00000662     -5912.5815103751 -1.28E-04
    27 OT DIIS     0.15E+00   18.1     0.00000666     -5912.5815953857 -8.50E-05
    28 OT DIIS     0.15E+00   18.0     0.00000650     -5912.5816783267 -8.29E-05
    29 OT DIIS     0.15E+00   18.1     0.00000645     -5912.5817598375 -8.15E-05
    30 OT SD       0.15E+00   18.1     0.00000653     -5912.5818132371 -5.34E-05

  Leaving inner SCF loop after reaching    30 steps.


  Electronic density on regular grids:      -3468.0000001799       -0.0000001799
  Core density on regular grids:             3467.9999999952       -0.0000000048
  Total charge density on r-space grids:       -0.0000001847
  Total charge density g-space grids:          -0.0000001836

  Overlap energy of the core charge distribution:               0.00000032801693
  Self energy of the core charge distribution:             -13952.81139369569428
  Core Hamiltonian energy:                                   3143.63276601648931
  Hartree energy:                                            6202.69957974474528
  Exchange-correlation energy:                              -1303.64394781195642
  Dispersion energy:                                           -2.45881781867022

  Total energy:                                             -5912.58181323706958

  outer SCF iter =   10 RMS gradient =   0.65E-05 energy =      -5912.5818132371

  ----------------------------------- OT ---------------------------------------
  Minimizer      : DIIS                : direct inversion
                                         in the iterative subspace
                                         using   8 DIIS vectors
                                         safer DIIS on
  Preconditioner : FULL_KINETIC        : inversion of T + eS
  Precond_solver : DEFAULT
  stepsize       :    0.15000000                  energy_gap     :    0.00010000
  eps_taylor     :   0.10000E-15                  max_taylor     :             4
  ----------------------------------- OT ---------------------------------------

  Step     Update method      Time    Convergence         Total energy    Change
  ------------------------------------------------------------------------------
     1 OT DIIS     0.15E+00   41.6     0.00001147     -5912.5818829646 -6.97E-05
     2 OT DIIS     0.15E+00   17.7     0.00007045     -5912.5814071205  4.76E-04
     3 OT DIIS     0.15E+00   17.8     0.00000710     -5912.5819845128 -5.77E-04
     4 OT SD       0.15E+00   17.8     0.00000663     -5912.5819994297 -1.49E-05
     5 OT SD       0.15E+00   17.8     0.00000929     -5912.5820789051 -7.95E-05
     6 OT DIIS     0.15E+00   17.8     0.00004888     -5912.5819040029  1.75E-04
     7 OT SD       0.15E+00   17.8     0.00000646     -5912.5817379793  1.66E-04
     8 OT SD       0.15E+00   17.8     0.00000858     -5912.5818113937 -7.34E-05
     9 OT SD       0.15E+00   17.9     0.00003083     -5912.5817564009  5.50E-05
    10 OT DIIS     0.15E+00   18.0     0.00017399     -5912.5777341873  4.02E-03
    11 OT DIIS     0.15E+00   17.8     0.00000680     -5912.5816125804 -3.88E-03
    12 OT DIIS     0.15E+00   17.8     0.00000685     -5912.5816427131 -3.01E-05
    13 OT DIIS     0.15E+00   17.8     0.00000672     -5912.5817875948 -1.45E-04
    14 OT SD       0.15E+00   17.9     0.00000699     -5912.5818491550 -6.16E-05
    15 OT DIIS     0.15E+00   18.1     0.00002937     -5912.5818197862  2.94E-05
    16 OT DIIS     0.15E+00   18.1     0.00000580     -5912.5818579745 -3.82E-05
    17 OT DIIS     0.15E+00   18.1     0.00000692     -5912.5820222672 -1.64E-04
    18 OT DIIS     0.15E+00   18.1     0.00000585     -5912.5820895498 -6.73E-05
    19 OT DIIS     0.15E+00   18.1     0.00000583     -5912.5821283580 -3.88E-05
    20 OT DIIS     0.15E+00   18.1     0.00000584     -5912.5822792006 -1.51E-04
    21 OT DIIS     0.15E+00   17.9     0.00000586     -5912.5823934464 -1.14E-04
    22 OT DIIS     0.15E+00   18.0     0.00000582     -5912.5824699598 -7.65E-05
    23 OT DIIS     0.15E+00   18.0     0.00000543     -5912.5826646863 -1.95E-04
    24 OT DIIS     0.15E+00   18.0     0.00000553     -5912.5828082873 -1.44E-04
    25 OT DIIS     0.15E+00   18.0     0.00000572     -5912.5829192824 -1.11E-04
    26 OT DIIS     0.15E+00   18.0     0.00000600     -5912.5830183948 -9.91E-05
    27 OT DIIS     0.15E+00   18.0     0.00000541     -5912.5830598578 -4.15E-05
    28 OT DIIS     0.15E+00   18.0     0.00000524     -5912.5832418230 -1.82E-04
    29 OT DIIS     0.15E+00   18.0     0.00000549     -5912.5832608740 -1.91E-05
    30 OT DIIS     0.15E+00   18.1     0.00000527     -5912.5833171503 -5.63E-05

  Leaving inner SCF loop after reaching    30 steps.


  Electronic density on regular grids:      -3468.0000000027       -0.0000000027
  Core density on regular grids:             3467.9999999952       -0.0000000048
  Total charge density on r-space grids:       -0.0000000075
  Total charge density g-space grids:          -0.0000000065

  Overlap energy of the core charge distribution:               0.00000032801693
  Self energy of the core charge distribution:             -13952.81139369569428
  Core Hamiltonian energy:                                   3143.63887925172730
  Hartree energy:                                            6202.69471986454482
  Exchange-correlation energy:                              -1303.64670508020777
  Dispersion energy:                                           -2.45881781867022

  Total energy:                                             -5912.58331715028453

  outer SCF iter =   11 RMS gradient =   0.53E-05 energy =      -5912.5833171503

  ----------------------------------- OT ---------------------------------------
  Minimizer      : DIIS                : direct inversion
                                         in the iterative subspace
                                         using   8 DIIS vectors
                                         safer DIIS on
  Preconditioner : FULL_KINETIC        : inversion of T + eS
  Precond_solver : DEFAULT
  stepsize       :    0.15000000                  energy_gap     :    0.00010000
  eps_taylor     :   0.10000E-15                  max_taylor     :             4
  ----------------------------------- OT ---------------------------------------

  Step     Update method      Time    Convergence         Total energy    Change
  ------------------------------------------------------------------------------
     1 OT DIIS     0.15E+00   40.5     0.00000522     -5912.5833557420 -3.86E-05
     2 OT DIIS     0.15E+00   17.8     0.00000539     -5912.5834087678 -5.30E-05
     3 OT SD       0.15E+00   17.8     0.00000525     -5912.5834161097 -7.34E-06
     4 OT SD       0.15E+00   17.8     0.00000544     -5912.5834695897 -5.35E-05
     5 OT SD       0.15E+00   17.8     0.00000945     -5912.5835160507 -4.65E-05
     6 OT DIIS     0.15E+00   17.8     0.00005261     -5912.5832414222  2.75E-04
     7 OT SD       0.15E+00   17.8     0.00000552     -5912.5832736480 -3.22E-05
     8 OT SD       0.15E+00   17.9     0.00001554     -5912.5833014936 -2.78E-05
     9 OT DIIS     0.15E+00   18.0     0.00011235     -5912.5819595735  1.34E-03
    10 OT DIIS     0.15E+00   17.8     0.00000567     -5912.5832758320 -1.32E-03
    11 OT SD       0.15E+00   17.7     0.00000535     -5912.5833308780 -5.50E-05
    12 OT DIIS     0.15E+00   17.8     0.00001310     -5912.5833574648 -2.66E-05
    13 OT DIIS     0.15E+00   17.9     0.00000645     -5912.5833878528 -3.04E-05
    14 OT DIIS     0.15E+00   18.1     0.00000499     -5912.5834415269 -5.37E-05
    15 OT DIIS     0.15E+00   18.1     0.00000489     -5912.5834690503 -2.75E-05
    16 OT DIIS     0.15E+00   18.1     0.00000606     -5912.5835328299 -6.38E-05
    17 OT DIIS     0.15E+00   18.1     0.00000473     -5912.5836144950 -8.17E-05
    18 OT DIIS     0.15E+00   18.1     0.00000495     -5912.5836807530 -6.63E-05
    19 OT DIIS     0.15E+00   18.1     0.00000471     -5912.5837306844 -4.99E-05
    20 OT DIIS     0.15E+00   18.1     0.00000458     -5912.5838492203 -1.19E-04
    21 OT DIIS     0.15E+00   18.1     0.00000519     -5912.5839030226 -5.38E-05
    22 OT DIIS     0.15E+00   18.1     0.00000508     -5912.5839298499 -2.68E-05
    23 OT DIIS     0.15E+00   18.1     0.00000473     -5912.5839984522 -6.86E-05
    24 OT DIIS     0.15E+00   18.1     0.00000456     -5912.5840551374 -5.67E-05
    25 OT DIIS     0.15E+00   18.1     0.00000499     -5912.5840744928 -1.94E-05
    26 OT DIIS     0.15E+00   18.1     0.00000450     -5912.5841389503 -6.45E-05
    27 OT DIIS     0.15E+00   18.1     0.00000450     -5912.5841605174 -2.16E-05
    28 OT SD       0.15E+00   18.1     0.00000449     -5912.5841663183 -5.80E-06
    29 OT SD       0.15E+00   18.1     0.00000474     -5912.5842053103 -3.90E-05
    30 OT SD       0.15E+00   18.1     0.00001154     -5912.5842317398 -2.64E-05

  Leaving inner SCF loop after reaching    30 steps.


  Electronic density on regular grids:      -3468.0000000001       -0.0000000001
  Core density on regular grids:             3467.9999999952       -0.0000000048
  Total charge density on r-space grids:       -0.0000000050
  Total charge density g-space grids:          -0.0000000040

  Overlap energy of the core charge distribution:               0.00000032801693
  Self energy of the core charge distribution:             -13952.81139369569428
  Core Hamiltonian energy:                                   3143.64223281795057
  Hartree energy:                                            6202.69164656574139
  Exchange-correlation energy:                              -1303.64789993717341
  Dispersion energy:                                           -2.45881781867022

  Total energy:                                             -5912.58423173983010

  outer SCF iter =   12 RMS gradient =   0.12E-04 energy =      -5912.5842317398

  ----------------------------------- OT ---------------------------------------
  Minimizer      : DIIS                : direct inversion
                                         in the iterative subspace
                                         using   8 DIIS vectors
                                         safer DIIS on
  Preconditioner : FULL_KINETIC        : inversion of T + eS
  Precond_solver : DEFAULT
  stepsize       :    0.15000000                  energy_gap     :    0.00010000
  eps_taylor     :   0.10000E-15                  max_taylor     :             4
  ----------------------------------- OT ---------------------------------------

  Step     Update method      Time    Convergence         Total energy    Change
  ------------------------------------------------------------------------------
     1 OT DIIS     0.15E+00   41.8     0.00007752     -5912.5835775401  6.54E-04
     2 OT DIIS     0.15E+00   18.0     0.00056757     -5912.5466599154  3.69E-02
     3 OT DIIS     0.15E+00   18.0     0.00002907     -5912.5842097877 -3.75E-02
     4 OT DIIS     0.15E+00   18.0     0.00000733     -5912.5843333857 -1.24E-04
     5 OT DIIS     0.15E+00   18.0     0.00000474     -5912.5843436910 -1.03E-05
     6 OT SD       0.15E+00   18.1     0.00000466     -5912.5843554750 -1.18E-05
     7 OT SD       0.15E+00   18.1     0.00000482     -5912.5843978869 -4.24E-05
     8 OT SD       0.15E+00   18.1     0.00000739     -5912.5844373172 -3.94E-05
     9 OT DIIS     0.15E+00   18.1     0.00003610     -5912.5843212020  1.16E-04
    10 OT SD       0.15E+00   18.1     0.00000528     -5912.5842238241  9.74E-05
    11 OT SD       0.15E+00   18.1     0.00002113     -5912.5842149672  8.86E-06
    12 OT DIIS     0.15E+00   18.1     0.00015806     -5912.5814941125  2.72E-03
    13 OT DIIS     0.15E+00   18.1     0.00000444     -5912.5840979306 -2.60E-03
    14 OT DIIS     0.15E+00   18.1     0.00000461     -5912.5841017994 -3.87E-06
    15 OT DIIS     0.15E+00   18.1     0.00000450     -5912.5841111004 -9.30E-06
    16 OT SD       0.15E+00   18.1     0.00000445     -5912.5841249832 -1.39E-05
    17 OT DIIS     0.15E+00   18.1     0.00001031     -5912.5841501388 -2.52E-05
    18 OT DIIS     0.15E+00   18.1     0.00000446     -5912.5841758110 -2.57E-05
    19 OT DIIS     0.15E+00   18.1     0.00000486     -5912.5842985953 -1.23E-04
    20 OT DIIS     0.15E+00   18.0     0.00000442     -5912.5843965242 -9.79E-05
    21 OT DIIS     0.15E+00   17.9     0.00000410     -5912.5844475061 -5.10E-05
    22 OT DIIS     0.15E+00   18.0     0.00000403     -5912.5845149628 -6.75E-05
    23 OT DIIS     0.15E+00   18.1     0.00000419     -5912.5845426762 -2.77E-05
    24 OT DIIS     0.15E+00   18.1     0.00000408     -5912.5845689835 -2.63E-05
    25 OT DIIS     0.15E+00   18.0     0.00000409     -5912.5846582355 -8.93E-05
    26 OT DIIS     0.15E+00   18.1     0.00000458     -5912.5847378318 -7.96E-05
    27 OT DIIS     0.15E+00   18.1     0.00000424     -5912.5847705371 -3.27E-05
    28 OT DIIS     0.15E+00   18.1     0.00000412     -5912.5848057562 -3.52E-05
    29 OT DIIS     0.15E+00   18.1     0.00000402     -5912.5848075002 -1.74E-06
    30 OT SD       0.15E+00   18.0     0.00000401     -5912.5848122902 -4.79E-06

  Leaving inner SCF loop after reaching    30 steps.


  Electronic density on regular grids:      -3467.9999999997        0.0000000003
  Core density on regular grids:             3467.9999999952       -0.0000000048
  Total charge density on r-space grids:       -0.0000000045
  Total charge density g-space grids:          -0.0000000037

  Overlap energy of the core charge distribution:               0.00000032801693
  Self energy of the core charge distribution:             -13952.81139369569428
  Core Hamiltonian energy:                                   3143.64565219112228
  Hartree energy:                                            6202.68896701754329
  Exchange-correlation energy:                              -1303.64922031246761
  Dispersion energy:                                           -2.45881781867022

  Total energy:                                             -5912.58481229015069

  outer SCF iter =   13 RMS gradient =   0.40E-05 energy =      -5912.5848122902

  ----------------------------------- OT ---------------------------------------
  Minimizer      : DIIS                : direct inversion
                                         in the iterative subspace
                                         using   8 DIIS vectors
                                         safer DIIS on
  Preconditioner : FULL_KINETIC        : inversion of T + eS
  Precond_solver : DEFAULT
  stepsize       :    0.15000000                  energy_gap     :    0.00010000
  eps_taylor     :   0.10000E-15                  max_taylor     :             4
  ----------------------------------- OT ---------------------------------------

  Step     Update method      Time    Convergence         Total energy    Change
  ------------------------------------------------------------------------------
     1 OT DIIS     0.15E+00   40.4     0.00000601     -5912.5848398085 -2.75E-05
     2 OT DIIS     0.15E+00   17.7     0.00002939     -5912.5847645743  7.52E-05
     3 OT DIIS     0.15E+00   17.8     0.00000576     -5912.5848749212 -1.10E-04
     4 OT SD       0.15E+00   17.8     0.00000402     -5912.5848824656 -7.54E-06
     5 OT SD       0.15E+00   17.8     0.00000442     -5912.5849134205 -3.10E-05
     6 OT SD       0.15E+00   17.9     0.00001291     -5912.5849281509 -1.47E-05
     7 OT DIIS     0.15E+00   18.0     0.00009226     -5912.5840161158  9.12E-04
     8 OT DIIS     0.15E+00   17.8     0.00000388     -5912.5846901312 -6.74E-04
     9 OT SD       0.15E+00   17.9     0.00000391     -5912.5846903043 -1.73E-07
    10 OT SD       0.15E+00   17.9     0.00000586     -5912.5847160457 -2.57E-05
    11 OT DIIS     0.15E+00   17.9     0.00002740     -5912.5846481821  6.79E-05
    12 OT DIIS     0.15E+00   17.8     0.00000399     -5912.5847368276 -8.86E-05
    13 OT DIIS     0.15E+00   17.8     0.00000432     -5912.5847484627 -1.16E-05
    14 OT DIIS     0.15E+00   17.9     0.00000447     -5912.5849278176 -1.79E-04
    15 OT DIIS     0.15E+00   17.9     0.00000388     -5912.5851114035 -1.84E-04
    16 OT DIIS     0.15E+00   18.1     0.00000386     -5912.5851966305 -8.52E-05
    17 OT DIIS     0.15E+00   18.1     0.00000562     -5912.5853201249 -1.23E-04
    18 OT DIIS     0.15E+00   18.1     0.00000361     -5912.5853825594 -6.24E-05
    19 OT DIIS     0.15E+00   18.1     0.00000354     -5912.5855246287 -1.42E-04
    20 OT DIIS     0.15E+00   18.0     0.00000327     -5912.5856737180 -1.49E-04
    21 OT DIIS     0.15E+00   18.1     0.00000343     -5912.5858269937 -1.53E-04
    22 OT DIIS     0.15E+00   18.0     0.00000371     -5912.5858511397 -2.41E-05
    23 OT DIIS     0.15E+00   18.1     0.00000338     -5912.5858756446 -2.45E-05
    24 OT DIIS     0.15E+00   18.1     0.00000299     -5912.5859008288 -2.52E-05
    25 OT DIIS     0.15E+00   18.1     0.00000290     -5912.5859383859 -3.76E-05
    26 OT DIIS     0.15E+00   18.1     0.00000292     -5912.5859459972 -7.61E-06
    27 OT SD       0.15E+00   18.1     0.00000290     -5912.5859578742 -1.19E-05
    28 OT SD       0.15E+00   18.1     0.00000374     -5912.5859735393 -1.57E-05
    29 OT DIIS     0.15E+00   18.0     0.00001772     -5912.5859556528  1.79E-05
    30 OT DIIS     0.15E+00   18.0     0.00000309     -5912.5859599814 -4.33E-06

  Leaving inner SCF loop after reaching    30 steps.


  Electronic density on regular grids:      -3468.0000000087       -0.0000000087
  Core density on regular grids:             3467.9999999952       -0.0000000048
  Total charge density on r-space grids:       -0.0000000135
  Total charge density g-space grids:          -0.0000000125

  Overlap energy of the core charge distribution:               0.00000032801693
  Self energy of the core charge distribution:             -13952.81139369569428
  Core Hamiltonian energy:                                   3143.65294220975738
  Hartree energy:                                            6202.68327617059822
  Exchange-correlation energy:                              -1303.65196717544950
  Dispersion energy:                                           -2.45881781867022

  Total energy:                                             -5912.58595998144301

  outer SCF iter =   14 RMS gradient =   0.31E-05 energy =      -5912.5859599814

  ----------------------------------- OT ---------------------------------------
  Minimizer      : DIIS                : direct inversion
                                         in the iterative subspace
                                         using   8 DIIS vectors
                                         safer DIIS on
  Preconditioner : FULL_KINETIC        : inversion of T + eS
  Precond_solver : DEFAULT
  stepsize       :    0.15000000                  energy_gap     :    0.00010000
  eps_taylor     :   0.10000E-15                  max_taylor     :             4
  ----------------------------------- OT ---------------------------------------

  Step     Update method      Time    Convergence         Total energy    Change
  ------------------------------------------------------------------------------
     1 OT DIIS     0.15E+00   41.6     0.00000321     -5912.5859646284 -4.65E-06
     2 OT DIIS     0.15E+00   17.7     0.00001114     -5912.5859660620 -1.43E-06
     3 OT DIIS     0.15E+00   17.8     0.00000301     -5912.5859819573 -1.59E-05
     4 OT DIIS     0.15E+00   17.8     0.00000283     -5912.5859850696 -3.11E-06
     5 OT SD       0.15E+00   17.8     0.00000281     -5912.5859879703 -2.90E-06
     6 OT SD       0.15E+00   17.8     0.00000289     -5912.5860033941 -1.54E-05
     7 OT SD       0.15E+00   17.8     0.00000436     -5912.5860177048 -1.43E-05
     8 OT DIIS     0.15E+00   17.8     0.00002076     -5912.5859792492  3.85E-05
     9 OT SD       0.15E+00   17.8     0.00000294     -5912.5859399484  3.93E-05
    10 OT SD       0.15E+00   17.8     0.00000622     -5912.5859488863 -8.94E-06
    11 OT DIIS     0.15E+00   17.8     0.00002881     -5912.5858392828  1.10E-04
    12 OT DIIS     0.15E+00   17.8     0.00000308     -5912.5859278850 -8.86E-05
    13 OT SD       0.15E+00   17.9     0.00000315     -5912.5859348911 -7.01E-06
    14 OT DIIS     0.15E+00   17.9     0.00001417     -5912.5859253388  9.55E-06
    15 OT SD       0.15E+00   17.9     0.00000270     -5912.5859588297 -3.35E-05
    16 OT DIIS     0.15E+00   17.9     0.00000698     -5912.5859654359 -6.61E-06
    17 OT DIIS     0.15E+00   17.9     0.00000251     -5912.5859660769 -6.41E-07
    18 OT DIIS     0.15E+00   17.9     0.00000265     -5912.5859939388 -2.79E-05
    19 OT DIIS     0.15E+00   17.8     0.00000247     -5912.5860092762 -1.53E-05
    20 OT DIIS     0.15E+00   17.9     0.00000245     -5912.5860204239 -1.11E-05
    21 OT DIIS     0.15E+00   17.8     0.00000274     -5912.5860418035 -2.14E-05
    22 OT DIIS     0.15E+00   18.1     0.00000243     -5912.5860600553 -1.83E-05
    23 OT DIIS     0.15E+00   18.1     0.00000247     -5912.5860726577 -1.26E-05
    24 OT DIIS     0.15E+00   18.0     0.00000242     -5912.5861335387 -6.09E-05
    25 OT DIIS     0.15E+00   18.0     0.00000283     -5912.5861731557 -3.96E-05
    26 OT DIIS     0.15E+00   18.0     0.00000241     -5912.5861803389 -7.18E-06
    27 OT DIIS     0.15E+00   18.1     0.00000238     -5912.5862089030 -2.86E-05
    28 OT DIIS     0.15E+00   18.0     0.00000235     -5912.5862345987 -2.57E-05
    29 OT DIIS     0.15E+00   18.0     0.00000239     -5912.5862452949 -1.07E-05
    30 OT SD       0.15E+00   18.1     0.00000241     -5912.5862618295 -1.65E-05

  Leaving inner SCF loop after reaching    30 steps.


  Electronic density on regular grids:      -3467.9999999997        0.0000000003
  Core density on regular grids:             3467.9999999952       -0.0000000048
  Total charge density on r-space grids:       -0.0000000045
  Total charge density g-space grids:          -0.0000000036

  Overlap energy of the core charge distribution:               0.00000032801693
  Self energy of the core charge distribution:             -13952.81139369569428
  Core Hamiltonian energy:                                   3143.65434980787632
  Hartree energy:                                            6202.68209020477661
  Exchange-correlation energy:                              -1303.65249065576745
  Dispersion energy:                                           -2.45881781867022

  Total energy:                                             -5912.58626182946409

  outer SCF iter =   15 RMS gradient =   0.24E-05 energy =      -5912.5862618295

  ----------------------------------- OT ---------------------------------------
  Minimizer      : DIIS                : direct inversion
                                         in the iterative subspace
                                         using   8 DIIS vectors
                                         safer DIIS on
  Preconditioner : FULL_KINETIC        : inversion of T + eS
  Precond_solver : DEFAULT
  stepsize       :    0.15000000                  energy_gap     :    0.00010000
  eps_taylor     :   0.10000E-15                  max_taylor     :             4
  ----------------------------------- OT ---------------------------------------

  Step     Update method      Time    Convergence         Total energy    Change
  ------------------------------------------------------------------------------
     1 OT DIIS     0.15E+00   40.5     0.00000497     -5912.5862699125 -8.08E-06
     2 OT DIIS     0.15E+00   17.9     0.00003042     -5912.5861705032  9.94E-05
     3 OT DIIS     0.15E+00   17.8     0.00000380     -5912.5862830066 -1.13E-04
     4 OT SD       0.15E+00   17.8     0.00000236     -5912.5862858593 -2.85E-06
     5 OT SD       0.15E+00   17.8     0.00000303     -5912.5862962025 -1.03E-05
     6 OT SD       0.15E+00   17.8     0.00001376     -5912.5862859279  1.03E-05
     7 OT DIIS     0.15E+00   17.8     0.00009974     -5912.5851603320  1.13E-03
     8 OT SD       0.15E+00   17.8     0.00000229     -5912.5862221723 -1.06E-03
     9 OT SD       0.15E+00   17.9     0.00000281     -5912.5862317417 -9.57E-06
    10 OT DIIS     0.15E+00   17.8     0.00000919     -5912.5862299584  1.78E-06
    11 OT DIIS     0.15E+00   17.7     0.00000238     -5912.5862211612  8.80E-06
    12 OT DIIS     0.15E+00   17.9     0.00000234     -5912.5862441167 -2.30E-05
    13 OT DIIS     0.15E+00   17.8     0.00000259     -5912.5862645510 -2.04E-05
    14 OT DIIS     0.15E+00   17.8     0.00000238     -5912.5862757972 -1.12E-05
    15 OT DIIS     0.15E+00   17.8     0.00000249     -5912.5863065045 -3.07E-05
    16 OT SD       0.15E+00   17.9     0.00000237     -5912.5863144843 -7.98E-06
    17 OT DIIS     0.15E+00   17.8     0.00000784     -5912.5863164357 -1.95E-06
    18 OT DIIS     0.15E+00   17.8     0.00000218     -5912.5863365618 -2.01E-05
    19 OT DIIS     0.15E+00   17.8     0.00000218     -5912.5863651202 -2.86E-05
    20 OT DIIS     0.15E+00   17.8     0.00000239     -5912.5863779980 -1.29E-05
    21 OT DIIS     0.15E+00   17.8     0.00000220     -5912.5864072349 -2.92E-05
    22 OT SD       0.15E+00   17.9     0.00000214     -5912.5864535583 -4.63E-05
    23 OT DIIS     0.15E+00   18.1     0.00000486     -5912.5864589703 -5.41E-06
    24 OT DIIS     0.15E+00   18.1     0.00000220     -5912.5864960196 -3.70E-05
    25 OT DIIS     0.15E+00   18.1     0.00000219     -5912.5865119489 -1.59E-05
    26 OT DIIS     0.15E+00   18.1     0.00000199     -5912.5865665375 -5.46E-05
    27 OT DIIS     0.15E+00   18.1     0.00000200     -5912.5865975454 -3.10E-05
    28 OT DIIS     0.15E+00   18.0     0.00000221     -5912.5866092554 -1.17E-05
    29 OT SD       0.15E+00   18.1     0.00000201     -5912.5866279197 -1.87E-05
    30 OT SD       0.15E+00   18.1     0.00000399     -5912.5866339235 -6.00E-06

  Leaving inner SCF loop after reaching    30 steps.


  Electronic density on regular grids:      -3467.9999999998        0.0000000002
  Core density on regular grids:             3467.9999999952       -0.0000000048
  Total charge density on r-space grids:       -0.0000000046
  Total charge density g-space grids:          -0.0000000037

  Overlap energy of the core charge distribution:               0.00000032801693
  Self energy of the core charge distribution:             -13952.81139369569428
  Core Hamiltonian energy:                                   3143.65553213937164
  Hartree energy:                                            6202.68104715890604
  Exchange-correlation energy:                              -1303.65300203541437
  Dispersion energy:                                           -2.45881781867022

  Total energy:                                             -5912.58663392348626

  outer SCF iter =   16 RMS gradient =   0.40E-05 energy =      -5912.5866339235

  ----------------------------------- OT ---------------------------------------
  Minimizer      : DIIS                : direct inversion
                                         in the iterative subspace
                                         using   8 DIIS vectors
                                         safer DIIS on
  Preconditioner : FULL_KINETIC        : inversion of T + eS
  Precond_solver : DEFAULT
  stepsize       :    0.15000000                  energy_gap     :    0.00010000
  eps_taylor     :   0.10000E-15                  max_taylor     :             4
  ----------------------------------- OT ---------------------------------------

  Step     Update method      Time    Convergence         Total energy    Change
  ------------------------------------------------------------------------------
     1 OT DIIS     0.15E+00   42.0     0.00002550     -5912.5865670741  6.68E-05
     2 OT DIIS     0.15E+00   18.0     0.00018791     -5912.5825490504  4.02E-03
     3 OT DIIS     0.15E+00   17.8     0.00000855     -5912.5866413031 -4.09E-03
     4 OT DIIS     0.15E+00   17.8     0.00000235     -5912.5866521653 -1.09E-05
     5 OT DIIS     0.15E+00   17.8     0.00000200     -5912.5866535819 -1.42E-06
     6 OT SD       0.15E+00   17.9     0.00000200     -5912.5866538998 -3.18E-07
     7 OT SD       0.15E+00   17.8     0.00000224     -5912.5866614757 -7.58E-06
     8 OT SD       0.15E+00   17.9     0.00000633     -5912.5866647214 -3.25E-06
     9 OT DIIS     0.15E+00   17.8     0.00003979     -5912.5864785537  1.86E-04
    10 OT DIIS     0.15E+00   17.9     0.00000204     -5912.5866172657 -1.39E-04
    11 OT SD       0.15E+00   17.8     0.00000247     -5912.5866240864 -6.82E-06
    12 OT DIIS     0.15E+00   17.8     0.00001167     -5912.5866161770  7.91E-06
    13 OT SD       0.15E+00   17.9     0.00000209     -5912.5866153966  7.80E-07
    14 OT SD       0.15E+00   17.9     0.00000502     -5912.5866191089 -3.71E-06
    15 OT DIIS     0.15E+00   18.0     0.00002726     -5912.5865265450  9.26E-05
    16 OT DIIS     0.15E+00   17.9     0.00000211     -5912.5866149395 -8.84E-05
    17 OT DIIS     0.15E+00   17.9     0.00000196     -5912.5866170240 -2.08E-06
    18 OT SD       0.15E+00   17.9     0.00000214     -5912.5866185703 -1.55E-06
    19 OT DIIS     0.15E+00   17.8     0.00000757     -5912.5866181899  3.80E-07
[...]
     4 OT DIIS     0.15E+00   17.7     0.00000557     -5912.8810284363 -1.82E-05
     5 OT DIIS     0.15E+00   17.8     0.00000469     -5912.8810557945 -2.74E-05
     6 OT DIIS     0.15E+00   18.0     0.00000186     -5912.8810632986 -7.50E-06
     7 OT DIIS     0.15E+00   18.0     0.00000155     -5912.8810659990 -2.70E-06
     8 OT DIIS     0.15E+00   18.0     0.00000114     -5912.8810684052 -2.41E-06
     9 OT DIIS     0.15E+00   18.0     0.00000101     -5912.8810688960 -4.91E-07
    10 OT DIIS     0.15E+00   18.0     0.00000063     -5912.8810701613 -1.27E-06

  *** SCF run converged in    10 steps ***


  Electronic density on regular grids:      -3468.0000000014       -0.0000000014
  Core density on regular grids:             3467.9999999952       -0.0000000048
  Total charge density on r-space grids:       -0.0000000061
  Total charge density g-space grids:          -0.0000000052

  Overlap energy of the core charge distribution:               0.00000032799753
  Self energy of the core charge distribution:             -13952.81139369569428
  Core Hamiltonian energy:                                   3143.55020012188152
  Hartree energy:                                            6202.61400596291878
  Exchange-correlation energy:                              -1303.77437503802798
  Dispersion energy:                                           -2.45950784041808

  Total energy:                                             -5912.88107016134109

  outer SCF iter =    1 RMS gradient =   0.63E-06 energy =      -5912.8810701613
  outer SCF loop converged in   1 iterations or   10 steps


 ENERGY| Total FORCE_EVAL ( QS ) energy (a.u.):            -5912.881070161341086


 -------------------------------------------------------------------------------
 -                                                                             -
 -                                DBCSR STATISTICS                             -
 -                                                                             -
 -------------------------------------------------------------------------------
 COUNTER                                    TOTAL       BLAS       SMM       ACC
 flops     6 x     6 x     6             90517824       0.0%    100.0%      0.0%
 flops     6 x    32 x    32            740524032       0.0%    100.0%      0.0%
 flops     6 x     6 x   416           1843246080       0.0%    100.0%      0.0%
 flops     6 x     6 x   422           1869831360       0.0%    100.0%      0.0%
 flops     6 x     6 x   448           3970068480       0.0%    100.0%      0.0%
 flops     6 x     6 x    13          18127706688       0.0%    100.0%      0.0%
 flops    13 x     6 x     6          18278125632       0.0%    100.0%      0.0%
 flops     6 x    32 x     6          25930285056       0.0%    100.0%      0.0%
 flops    13 x    32 x    32         231043497984       0.0%    100.0%      0.0%
 flops     6 x    13 x   416         295831595904       0.0%    100.0%      0.0%
 flops    13 x     6 x   416         297555947520       0.0%    100.0%      0.0%
 flops     6 x    13 x   422         300098397768       0.0%    100.0%      0.0%
 flops    13 x     6 x   422         301847619840       0.0%    100.0%      0.0%
 flops     6 x    13 x   448         637175745024       0.0%    100.0%      0.0%
 flops    13 x     6 x   448         640889733120       0.0%    100.0%      0.0%
 flops   416 x   416 x   416        4799083773952     100.0%      0.0%      0.0%
 flops   416 x   416 x   422        4868301328384     100.0%      0.0%      0.0%
 flops   416 x   422 x   416        4868301328384     100.0%      0.0%      0.0%
 flops   422 x   416 x   416        4868301328384     100.0%      0.0%      0.0%
 flops   416 x   422 x   422        4938517212928     100.0%      0.0%      0.0%
 flops   422 x   416 x   422        4938517212928     100.0%      0.0%      0.0%
 flops   422 x   422 x   416        4938517212928     100.0%      0.0%      0.0%
 flops   422 x   422 x   422        5009745826576     100.0%      0.0%      0.0%
 flops    13 x     6 x    13        5037605624376       0.0%    100.0%      0.0%
 flops    13 x    32 x     6        5220779526144       0.0%    100.0%      0.0%
 flops     6 x    32 x    13        5220779526144       0.0%    100.0%      0.0%
 flops   416 x   416 x   448       10336488128512     100.0%      0.0%      0.0%
 flops   416 x   448 x   416       10336488128512     100.0%      0.0%      0.0%
 flops   448 x   416 x   416       10336488128512     100.0%      0.0%      0.0%
 flops   416 x   422 x   448       10485572091904     100.0%      0.0%      0.0%
 flops   416 x   448 x   422       10485572091904     100.0%      0.0%      0.0%
 flops   422 x   416 x   448       10485572091904     100.0%      0.0%      0.0%
 flops   422 x   448 x   416       10485572091904     100.0%      0.0%      0.0%
 flops   448 x   416 x   422       10485572091904     100.0%      0.0%      0.0%
 flops   448 x   422 x   416       10485572091904     100.0%      0.0%      0.0%
 flops   422 x   422 x   448       10636806304768     100.0%      0.0%      0.0%
 flops   422 x   448 x   422       10636806304768     100.0%      0.0%      0.0%
 flops   448 x   422 x   422       10636806304768     100.0%      0.0%      0.0%
 flops   448 x   448 x   416       22263205199872     100.0%      0.0%      0.0%
 flops   416 x   448 x   448       22263205199872     100.0%      0.0%      0.0%
 flops   448 x   416 x   448       22263205199872     100.0%      0.0%      0.0%
 flops   448 x   448 x   422       22584309121024     100.0%      0.0%      0.0%
 flops   422 x   448 x   448       22584309121024     100.0%      0.0%      0.0%
 flops   448 x   422 x   448       22584309121024     100.0%      0.0%      0.0%
 flops   448 x   448 x   448       47951518892032     100.0%      0.0%      0.0%
 flops   416 x   416 x  1878       59729647091712     100.0%      0.0%      0.0%
 flops   416 x   422 x  1878       60591132386304     100.0%      0.0%      0.0%
 flops   422 x   416 x  1878       60591132386304     100.0%      0.0%      0.0%
 flops   422 x   422 x  1878       61465042949568     100.0%      0.0%      0.0%
 flops  1878 x   416 x   416       74118010257408     100.0%      0.0%      0.0%
 flops  1878 x   416 x   422       75187020020736     100.0%      0.0%      0.0%
 flops  1878 x   422 x   416       75187020020736     100.0%      0.0%      0.0%
 flops  1878 x   422 x   422       76271448194112     100.0%      0.0%      0.0%
 flops    13 x    13 x   416       82755131286464       0.0%    100.0%      0.0%
 flops    13 x    13 x   422       83948714910788       0.0%    100.0%      0.0%
 flops   416 x   448 x  1878      128648470659072     100.0%      0.0%      0.0%
 flops   448 x   416 x  1878      128648470659072     100.0%      0.0%      0.0%
 flops   422 x   448 x  1878      130503977447424     100.0%      0.0%      0.0%
 flops   448 x   422 x  1878      130503977447424     100.0%      0.0%      0.0%
 flops  1878 x   448 x   416      159638791323648     100.0%      0.0%      0.0%
 flops  1878 x   416 x   448      159638791323648     100.0%      0.0%      0.0%
 flops  1878 x   448 x   422      161941273890816     100.0%      0.0%      0.0%
 flops  1878 x   422 x   448      161941273890816     100.0%      0.0%      0.0%
 flops    13 x    13 x   448      178241821232384       0.0%    100.0%      0.0%
 flops   448 x   448 x  1878      277089013727232     100.0%      0.0%      0.0%
 flops  1878 x   416 x  1878      286018667790336     100.0%      0.0%      0.0%
 flops  1878 x   422 x  1878      290143937037312     100.0%      0.0%      0.0%
 flops  1878 x   448 x   448      343837396697088     100.0%      0.0%      0.0%
 flops  1878 x   448 x  1878      616040207548416     100.0%      0.0%      0.0%
 flops    13 x    32 x    13     1450830419820288       0.0%    100.0%      0.0%
 flops inhomo. stacks                           0       0.0%      0.0%      0.0%
 flops total                         5.679322E+15      68.1%     31.9%      0.0%
 flops max/rank                    376.463364E+12      67.1%     32.9%      0.0%
 matmuls inhomo. stacks                         0       0.0%      0.0%      0.0%
 matmuls total                       141169057130       0.0%    100.0%      0.0%
 number of processed stacks             151907055       3.8%     96.2%      0.0%
 average stack size                                     1.0     966.3       0.0
 marketing flops                     7.641504E+15
 -------------------------------------------------------------------------------
 # multiplications                         110641
 max memory usage/rank               2.000200E+09
 # max total images/rank                        1
 # max 3D layers                                1
 # MPI messages exchanged                10621536
 MPI messages size (bytes):
  total size                        58.429679E+12
  min size                           0.000000E+00
  max size                          28.215072E+06
  average size                       5.501058E+06
 MPI breakdown and total messages size (bytes):
             size <=      128               36828                        0
       128 < size <=     8192                   0                        0
      8192 < size <=    32768                   0                        0
     32768 < size <=   131072                3348                370503072
    131072 < size <=  4194304             4568112            6867599082336
   4194304 < size <= 16777216             5486364           39196117234560
  16777216 < size                          526884           12389372822256
 -------------------------------------------------------------------------------

 MEMORY| Estimated peak process memory [MiB]                                1908

 -------------------------------------------------------------------------------
 -                                                                             -
 -                         MESSAGE PASSING PERFORMANCE                         -
 -                                                                             -
 -------------------------------------------------------------------------------

 ROUTINE             CALLS      AVE VOLUME [Bytes]
 MP_Group             3185
 MP_Bcast            40094                  12383.
 MP_Allreduce       713406                    231.
 MP_Sync                 4
 MP_Alltoall        472890               36914607.
 MP_SendRecv         10200                  25704.
 MP_ISendRecv       359010                 730080.
 MP_Wait           5936803
 MP_ISend          1963340                2362208.
 MP_IRecv          1963340                2367272.
 MP_Recv             26877                1449220.
 MP_Memory         4851926
 -------------------------------------------------------------------------------


 -------------------------------------------------------------------------------
 -                                                                             -
 -                           R E F E R E N C E S                               -
 -                                                                             -
 -------------------------------------------------------------------------------
 
 CP2K version 7.0 (Development Version), the CP2K developers group (2018).
 CP2K is freely available from https://www.cp2k.org/ .

 Schuett, Ole; Messmer, Peter; Hutter, Juerg; VandeVondele, Joost. 
 Electronic Structure Calculations on Graphics Processing Units, John Wiley & Sons, Ltd, 173-190 (2016). 
 GPU-Accelerated Sparse Matrix-Matrix Multiplication for Linear Scaling Density Functional Theory.
 http://dx.doi.org/10.1002/9781118670712.ch8


 Borstnik, U; VandeVondele, J; Weber, V; Hutter, J. 
 PARALLEL COMPUTING, 40 (5-6), 47-58 (2014). 
 Sparse matrix multiplication: The distributed block-compressed sparse
 row library.
 http://dx.doi.org/10.1016/j.parco.2014.03.012


 Hutter, J; Iannuzzi, M; Schiffmann, F; VandeVondele, J. 
 WILEY INTERDISCIPLINARY REVIEWS-COMPUTATIONAL MOLECULAR SCIENCE, 4 (1), 15-25 (2014). 
 CP2K: atomistic simulations of condensed matter systems.
 http://dx.doi.org/10.1002/wcms.1159


 Grimme, S; Ehrlich, S; Goerigk, L. 
 JOURNAL OF COMPUTATIONAL CHEMISTRY, 32, 1456 (2011). 
 Effect of the damping function in dispersion corrected density functional theory.
 http://dx.doi.org/10.1002/jcc.21759


 Grimme, S; Antony, J; Ehrlich, S; Krieg, H. 
 JOURNAL OF CHEMICAL PHYSICS, 132 (15), 154104 (2010). 
 A consistent and accurate ab initio parametrization of density
 functional dispersion correction (DFT-D) for the 94 elements H-Pu.
 http://dx.doi.org/10.1063/1.3382344


 VandeVondele, J; Hutter, J. 
 JOURNAL OF CHEMICAL PHYSICS, 127 (11), 114105 (2007). 
 Gaussian basis sets for accurate calculations on molecular systems in
 gas and condensed phases.
 http://dx.doi.org/10.1063/1.2770708


 Krack, M. 
 THEORETICAL CHEMISTRY ACCOUNTS, 114 (1-3), 145-152 (2005). 
 Pseudopotentials for H to Kr optimized for gradient-corrected
 exchange-correlation functionals.
 http://dx.doi.org/10.1007/s00214-005-0655-y


 VandeVondele, J; Krack, M; Mohamed, F; Parrinello, M; Chassaing, T;
 Hutter, J. COMPUTER PHYSICS COMMUNICATIONS, 167 (2), 103-128 (2005). 
 QUICKSTEP: Fast and accurate density functional calculations using a
 mixed Gaussian and plane waves approach.
 http://dx.doi.org/10.1016/j.cpc.2004.12.014


 Frigo, M; Johnson, SG. 
 PROCEEDINGS OF THE IEEE, 93 (2), 216-231 (2005). 
 The design and implementation of FFTW3.
 http://dx.doi.org/10.1109/JPROC.2004.840301


 Kolafa, J. 
 JOURNAL OF COMPUTATIONAL CHEMISTRY, 25 (3), 335-342 (2004). 
 Time-reversible always stable predictor-corrector method for molecular dynamics of polarizable molecules.
 http://dx.doi.org/10.1002/jcc.10385


 VandeVondele, J; Hutter, J. 
 JOURNAL OF CHEMICAL PHYSICS, 118 (10), 4365-4369 (2003). 
 An efficient orbital transformation method for electronic structure
 calculations.
 http://dx.doi.org/10.1063/1.1543154


 Hartwigsen, C; Goedecker, S; Hutter, J. 
 PHYSICAL REVIEW B, 58 (7), 3641-3662 (1998). 
 Relativistic separable dual-space Gaussian pseudopotentials from H to Rn.
 http://dx.doi.org/10.1103/PhysRevB.58.3641


 Lippert, G; Hutter, J; Parrinello, M. 
 MOLECULAR PHYSICS, 92 (3), 477-487 (1997). 
 A hybrid Gaussian and plane wave density functional scheme.
 http://dx.doi.org/10.1080/002689797170220


 Perdew, JP; Burke, K; Ernzerhof, M. 
 PHYSICAL REVIEW LETTERS, 77 (18), 3865-3868 (1996). 
 Generalized gradient approximation made simple.
 http://dx.doi.org/10.1103/PhysRevLett.77.3865


 Goedecker, S; Teter, M; Hutter, J. 
 PHYSICAL REVIEW B, 54 (3), 1703-1710 (1996). 
 Separable dual-space Gaussian pseudopotentials.
 http://dx.doi.org/10.1103/PhysRevB.54.1703


 -------------------------------------------------------------------------------
 -                                                                             -
 -                                T I M I N G                                  -
 -                                                                             -
 -------------------------------------------------------------------------------
 SUBROUTINE                       CALLS  ASD         SELF TIME        TOTAL TIME
                                MAXIMUM       AVERAGE  MAXIMUM  AVERAGE  MAXIMUM
 CP2K                                 1  1.0      0.0      0.0 111347.6 111350.0
 cp_geo_opt                           1  2.0      0.0      0.0 111345.8 111348.2
 geoopt_bfgs                          1  3.0      0.2      0.4 111345.8 111348.2
 cp_eval_at                         171  4.0      0.0      0.1 111245.0 111247.1
 qs_forces                          170  5.0      0.0      0.0 111049.4 111051.8
 qs_energies                        171  6.0      0.0      0.0 108562.3 108568.6
 scf_env_do_scf                     171  7.0      0.0      0.1 106357.5 106360.0
 scf_env_do_scf_inner_loop         5813  8.0      0.3      1.4 102167.7 102387.3
 rebuild_ks_matrix                 5983  9.9      0.0      0.0  62502.4  62740.7
 qs_ks_build_kohn_sham_matrix      5983 10.9      0.8      0.9  62502.3  62740.7
 qs_ks_update_qs_env               6092  9.0      0.1      0.1  60564.6  60796.3
 pw_transfer                     113853 13.6     11.1     12.8  41666.0  41857.7
 fft_wrap_pw1pw2                 101887 14.6      1.5      1.7  41286.7  41479.2
 fft_wrap_pw1pw2_150              65986 15.7   3002.9   3091.2  39682.3  39920.2
 qs_vxc_create                     5983 11.9      0.2      0.2  34809.9  34856.7
 xc_vxc_pw_create                  5983 12.9    414.7    454.0  34809.7  34856.5
 fft3d_ps                        101887 16.6  18151.4  18794.0  30433.1  30841.5
 dbcsr_multiply_generic          110641 14.0      8.3      9.2  24993.5  25278.4
 qs_rho_update_rho                 5984  9.0      0.0      0.1  23099.5  23387.7
 calculate_rho_elec                5984 10.0  12396.7  12796.8  23099.4  23387.6
 qs_scf_new_mos                    5813  9.0      0.1      0.1  21946.6  22350.0
 qs_scf_loop_do_ot                 5813 10.0      0.0      0.1  21946.5  22349.9
 multiply_cannon                 110641 15.0     16.2     18.2  21077.7  21992.2
 ot_scf_mini                       5813 11.0      0.3      0.4  19702.7  20050.2
 multiply_cannon_multrec         442564 16.0  18664.7  19752.6  18666.5  19754.2
 sum_up_and_integrate              5983 11.9     91.5     94.0  19085.6  19092.5
 integrate_v_rspace                5983 12.9  12360.9  12625.3  18994.1  19003.9
 xc_rho_set_and_dset_create        5983 13.9    158.0    164.6  18705.4  18875.9
 ot_mini                           5813 12.0      0.0      0.0  12733.0  13128.6
 density_rs2pw                     5984 11.0      0.3      0.4   9900.9  10272.8
 qs_ot_get_derivative              5813 13.0      0.1      0.1   8133.4   8482.5
 x_to_yz                          53848 18.1   5237.9   5361.5   7153.0   7444.0
 potential_pw2rs                   5983 13.9     13.0     13.7   6092.8   6098.5
 xc_functional_eval                5983 14.9      0.1      0.1   5742.9   5916.0
 pbe_lda_eval                      5983 15.9   5742.8   5915.9   5742.8   5915.9
 yz_to_x                          48039 17.1   3128.9   3252.0   5126.5   5659.7
 qs_ot_get_derivative_taylor       5418 14.0      0.2      0.3   5017.0   5343.4
 mp_alltoall_z22v                101887 18.6   3912.7   4810.8   3912.7   4810.8
 ot_diis_step                      5813 13.0      0.4      0.4   4576.8   4577.0
 apply_preconditioner_dbcsr        6092 14.0      0.0      0.0   4253.4   4327.0
 apply_single                      6092 15.0      0.0      0.0   4253.4   4327.0
 pw_gather_p                      48039 16.1   3969.5   4227.0   3969.5   4227.0
 pw_scatter_p                     53848 17.1   3774.7   4167.6   3774.7   4167.6
 init_scf_loop                      279  8.0      0.0      0.0   3996.2   3998.6
 rs_pw_transfer                   48209 13.4      1.0      1.2   3467.7   3840.8
 mp_waitall_1                   5742603 17.6   2268.4   2593.9   2268.4   2593.9
 calculate_dm_sparse               5984 11.0      0.0      0.1   2314.8   2545.3
 make_m2s                        221282 15.0      6.8      7.4   2487.9   2531.4
 -------------------------------------------------------------------------------

 The number of warnings for this run is : 1
 
 -------------------------------------------------------------------------------
  **** **** ******  **  PROGRAM ENDED AT                 2022-03-24 21:30:10.997
 ***** ** ***  *** **   PROGRAM RAN ON                                sebnode111
 **    ****   ******    PROGRAM RAN BY                                    luehrs
 ***** **    ** ** **   PROGRAM PROCESS ID                                 29256
  **** **  *******  **  PROGRAM STOPPED IN /home/luehrs/Sulphur_Surface_Reaction
                                           /S8_2Li_position/Second_lithiation/1.
                                           S8_p
