 DBCSR| Multiplication driver                                               XSMM
 DBCSR| Multrec recursion limit                                              512
 DBCSR| Multiplication stack size                                           1000
 DBCSR| Maximum elements for images                                    UNLIMITED
 DBCSR| Multiplicative factor virtual images                                   1
 DBCSR| Multiplication size stacks                                             3
 DBCSR| Number of 3D layers                                               SINGLE
 DBCSR| Use MPI memory allocation                                              T
 DBCSR| Use RMA algorithm                                                      F
 DBCSR| Use Communication thread                                               T
 DBCSR| Communication thread load                                             87


  **** **** ******  **  PROGRAM STARTED AT               2023-06-06 13:35:43.602
 ***** ** ***  *** **   PROGRAM STARTED ON                            sebnode127
 **    ****   ******    PROGRAM STARTED BY                                luehrs
 ***** **    ** ** **   PROGRAM PROCESS ID                               1494833
  **** **  *******  **  PROGRAM STARTED IN /home/luehrs/PhD/Li-S_paper/Li-S-Surf
                                           ace_Reaction/Second_Lithiation_of_S8_
                                           Surface/Second_Lithiation_around_S8/S
                                           econd_Lithiation_L2/Second_Lithiation
                                           _orthogonal/3.S8_o

 CP2K| version string:                    CP2K version 7.0 (Development Version)
 CP2K| source code revision number:                                             
 CP2K| cp2kflags: libint fftw3 libxc parallel mpi3 scalapack xsmm libderiv_max_a
 CP2K|            m1=8 libint_max_am=9 max_contr=4
 CP2K| is freely available from                            https://www.cp2k.org/
 CP2K| Program compiled at                         Sun Jun 24 14:37:16 CEST 2018
 CP2K| Program compiled on                                            sebstorage
 CP2K| Program compiled for                                Linux-x86-64-gfortran
 CP2K| Data directory path    /home/brehm/Software_Batchnode/2018/Source/cp2k_18
 CP2K| Input file name                                                input3.inp

 GLOBAL| Force Environment number                                              1
 GLOBAL| Basis set file name                                      ./BASIS_MOLOPT
 GLOBAL| Potential file name                                    ./GTH_POTENTIALS
 GLOBAL| MM Potential file name                                     MM_POTENTIAL
 GLOBAL| Coordinate file name             ./Second_lithiation_S8_3.o_relaxed.xyz
 GLOBAL| Method name                                                        CP2K
 GLOBAL| Project name                                                   Li_react
 GLOBAL| Preferred FFT library                                             FFTW3
 GLOBAL| Preferred diagonalization lib.                                       SL
 GLOBAL| Run type                                                        GEO_OPT
 GLOBAL| All-to-all communication in single precision                          F
 GLOBAL| FFTs using library dependent lengths                                  F
 GLOBAL| Global print level                                                  LOW
 GLOBAL| Total number of message passing processes                            16
 GLOBAL| Number of threads for this process                                    1
 GLOBAL| This output is from process                                           0
 GLOBAL| CPU model name :  AMD EPYC 7502 32-Core Processor

 MEMORY| system memory details [Kb]
 MEMORY|                        rank 0           min           max       average
 MEMORY| MemTotal            131918152     131918152     131918152     131918152
 MEMORY| MemFree              31228552      31228552      31228552      31228552
 MEMORY| Buffers                126228        126228        126228        126228
 MEMORY| Cached                2323624       2323624       2323628       2323624
 MEMORY| Slab                  1872788       1872788       1872788       1872788
 MEMORY| SReclaimable           307888        307888        307888        307888
 MEMORY| MemLikelyFree        33986292      33986292      33986296      33986292


 GENERATE|  Preliminary Number of Bonds generated:                             0
 GENERATE|  Achieved consistency in connectivity generation.

 *******************************************************************************
 *******************************************************************************
 **                                                                           **
 **     #####                         ##              ##                      **
 **    ##   ##            ##          ##              ##                      **
 **   ##     ##                       ##            ######                    **
 **   ##     ##  ##   ##  ##   #####  ##  ##   ####   ##    #####    #####    **
 **   ##     ##  ##   ##  ##  ##      ## ##   ##      ##   ##   ##  ##   ##   **
 **   ##  ## ##  ##   ##  ##  ##      ####     ###    ##   ######   ######    **
 **    ##  ###   ##   ##  ##  ##      ## ##      ##   ##   ##       ##        **
 **     #######   #####   ##   #####  ##  ##  ####    ##    #####   ##        **
 **           ##                                                    ##        **
 **                                                                           **
 **                                                ... make the atoms dance   **
 **                                                                           **
 **            Copyright (C) by CP2K developers group (2000 - 2018)           **
 **                                                                           **
 *******************************************************************************


 TOTAL NUMBERS AND MAXIMUM NUMBERS

  Total number of            - Atomic kinds:                                   2
                             - Atoms:                                        580
                             - Shell sets:                                   580
                             - Shells:                                      2896
                             - Primitive Cartesian functions:               3476
                             - Cartesian basis functions:                   8088
                             - Spherical basis functions:                   7512

  Maximum angular momentum of- Orbital basis functions:                        2
                             - Local part of the GTH pseudopotential:          6
                             - Non-local part of the GTH pseudopotential:      2


 SCF PARAMETERS         Density guess:                                   RESTART
                        --------------------------------------------------------
                        max_scf:                                              30
                        max_scf_history:                                       0
                        max_diis:                                              4
                        --------------------------------------------------------
                        eps_scf:                                        1.00E-06
                        eps_scf_history:                                0.00E+00
                        eps_diis:                                       1.00E-01
                        eps_eigval:                                     1.00E-05
                        --------------------------------------------------------
                        level_shift [a.u.]:                                 0.00
                        --------------------------------------------------------
                        Outer loop SCF in use 
                        No variables optimised in outer loop
                        eps_scf                                         1.00E-06
                        max_scf                                               25
                        DIIS optimization
                        DIIS buffer length                                     3
                        step_size                                       5.00E-01

 BFGS| Use rational function optimization for step estimation:                NO
 BFGS| Use model Hessian for initial guess:                                  YES
 BFGS| Restart Hessian:                                                       NO
 BFGS| Trust radius:                                                       0.472

 *******************************************************************************
 ***                     STARTING GEOMETRY OPTIMIZATION                      ***
 ***                                   BFGS                                  ***
 *******************************************************************************

 Number of electrons:                                                       3468
 Number of occupied orbitals:                                               1734
 Number of molecular orbitals:                                              1734

 Number of orbital functions:                                               7512
 Number of independent orbital functions:                                   7512

 Extrapolation method: initial_guess


 SCF WAVEFUNCTION OPTIMIZATION

  ----------------------------------- OT ---------------------------------------
  Minimizer      : DIIS                : direct inversion
                                         in the iterative subspace
                                         using   8 DIIS vectors
                                         safer DIIS on
  Preconditioner : FULL_KINETIC        : inversion of T + eS
  Precond_solver : DEFAULT
  stepsize       :    0.15000000                  energy_gap     :    0.00010000
  eps_taylor     :   0.10000E-15                  max_taylor     :             4
  ----------------------------------- OT ---------------------------------------

  Step     Update method      Time    Convergence         Total energy    Change
  ------------------------------------------------------------------------------
     1 OT DIIS     0.15E+00   28.5     0.00007515     -5912.6610114125 -5.91E+03
     2 OT DIIS     0.15E+00   26.3     0.00030977     -5912.6567316174  4.28E-03
     3 OT DIIS     0.15E+00   25.5     0.00006497     -5912.6682440441 -1.15E-02
     4 OT DIIS     0.15E+00   25.8     0.00006010     -5912.6708211886 -2.58E-03
     5 OT DIIS     0.15E+00   27.0     0.00008884     -5912.6799406179 -9.12E-03
     6 OT DIIS     0.15E+00   26.7     0.00005510     -5912.6834131991 -3.47E-03
     7 OT DIIS     0.15E+00   27.2     0.00003636     -5912.6867359859 -3.32E-03
     8 OT DIIS     0.15E+00   26.6     0.00003298     -5912.6952641522 -8.53E-03
     9 OT DIIS     0.15E+00   26.7     0.00003630     -5912.6987328068 -3.47E-03
    10 OT DIIS     0.15E+00   27.9     0.00006551     -5912.6983278665  4.05E-04
    11 OT DIIS     0.15E+00   27.1     0.00002479     -5912.7014788698 -3.15E-03
    12 OT DIIS     0.15E+00   27.2     0.00003723     -5912.7018090093 -3.30E-04
    13 OT DIIS     0.15E+00   25.9     0.00001648     -5912.7022482897 -4.39E-04
    14 OT DIIS     0.15E+00   26.5     0.00001805     -5912.7027858531 -5.38E-04
    15 OT DIIS     0.15E+00   26.2     0.00001942     -5912.7029472330 -1.61E-04
    16 OT DIIS     0.15E+00   26.6     0.00001163     -5912.7031353490 -1.88E-04
    17 OT DIIS     0.15E+00   26.6     0.00001327     -5912.7034412516 -3.06E-04
    18 OT DIIS     0.15E+00   26.4     0.00001211     -5912.7035733084 -1.32E-04
    19 OT DIIS     0.15E+00   26.1     0.00000990     -5912.7037808256 -2.08E-04
    20 OT DIIS     0.15E+00   26.2     0.00001300     -5912.7040028925 -2.22E-04
    21 OT DIIS     0.15E+00   27.8     0.00000990     -5912.7041998236 -1.97E-04
    22 OT DIIS     0.15E+00   27.7     0.00001098     -5912.7043414615 -1.42E-04
    23 OT DIIS     0.15E+00   27.5     0.00000929     -5912.7045290514 -1.88E-04
    24 OT DIIS     0.15E+00   27.0     0.00000911     -5912.7048288425 -3.00E-04
    25 OT DIIS     0.15E+00   26.9     0.00000956     -5912.7049436461 -1.15E-04
    26 OT DIIS     0.15E+00   27.0     0.00000849     -5912.7051953504 -2.52E-04
    27 OT DIIS     0.15E+00   26.7     0.00000851     -5912.7054427673 -2.47E-04
    28 OT DIIS     0.15E+00   27.0     0.00000860     -5912.7055904359 -1.48E-04
    29 OT DIIS     0.15E+00   27.5     0.00000743     -5912.7057712891 -1.81E-04
    30 OT DIIS     0.15E+00   27.3     0.00000816     -5912.7059791062 -2.08E-04

  Leaving inner SCF loop after reaching    30 steps.


  Electronic density on regular grids:      -3468.0000000015       -0.0000000015
  Core density on regular grids:             3467.9999999952       -0.0000000048
  Total charge density on r-space grids:       -0.0000000063
  Total charge density g-space grids:          -0.0000000053

  Overlap energy of the core charge distribution:               0.00000032801693
  Self energy of the core charge distribution:             -13952.81139369569428
  Core Hamiltonian energy:                                   3143.49219886111450
  Hartree energy:                                            6202.72464396959185
  Exchange-correlation energy:                              -1303.64971745419598
  Dispersion energy:                                           -2.46171111499073

  Total energy:                                             -5912.70597910615834

  outer SCF iter =    1 RMS gradient =   0.82E-05 energy =      -5912.7059791062

  ----------------------------------- OT ---------------------------------------
  Minimizer      : DIIS                : direct inversion
                                         in the iterative subspace
                                         using   8 DIIS vectors
                                         safer DIIS on
  Preconditioner : FULL_KINETIC        : inversion of T + eS
  Precond_solver : DEFAULT
  stepsize       :    0.15000000                  energy_gap     :    0.00010000
  eps_taylor     :   0.10000E-15                  max_taylor     :             4
  ----------------------------------- OT ---------------------------------------

  Step     Update method      Time    Convergence         Total energy    Change
  ------------------------------------------------------------------------------
     1 OT DIIS     0.15E+00   60.9     0.00000750     -5912.7061066736 -1.28E-04
     2 OT DIIS     0.15E+00   25.0     0.00002896     -5912.7060927177  1.40E-05
     3 OT DIIS     0.15E+00   24.8     0.00000638     -5912.7061949021 -1.02E-04
     4 OT DIIS     0.15E+00   25.5     0.00000628     -5912.7062362247 -4.13E-05
     5 OT DIIS     0.15E+00   26.5     0.00000984     -5912.7064604582 -2.24E-04
     6 OT DIIS     0.15E+00   26.4     0.00000704     -5912.7066730304 -2.13E-04
     7 OT DIIS     0.15E+00   27.1     0.00000508     -5912.7068366530 -1.64E-04
     8 OT DIIS     0.15E+00   26.7     0.00000507     -5912.7070342958 -1.98E-04
     9 OT DIIS     0.15E+00   26.9     0.00000466     -5912.7072076355 -1.73E-04
    10 OT DIIS     0.15E+00   26.2     0.00000759     -5912.7072422296 -3.46E-05
    11 OT DIIS     0.15E+00   26.6     0.00000453     -5912.7074015080 -1.59E-04
    12 OT DIIS     0.15E+00   26.7     0.00000505     -5912.7074642148 -6.27E-05
    13 OT DIIS     0.15E+00   26.3     0.00000468     -5912.7075112806 -4.71E-05
    14 OT DIIS     0.15E+00   26.4     0.00000485     -5912.7076446602 -1.33E-04
    15 OT DIIS     0.15E+00   25.7     0.00000520     -5912.7076949623 -5.03E-05
    16 OT DIIS     0.15E+00   26.4     0.00000400     -5912.7077680333 -7.31E-05
    17 OT DIIS     0.15E+00   25.7     0.00000412     -5912.7079156355 -1.48E-04
    18 OT DIIS     0.15E+00   26.4     0.00000435     -5912.7080034931 -8.79E-05
    19 OT DIIS     0.15E+00   26.6     0.00000367     -5912.7080658926 -6.24E-05
    20 OT DIIS     0.15E+00   25.2     0.00000402     -5912.7081678451 -1.02E-04
    21 OT DIIS     0.15E+00   26.0     0.00000380     -5912.7082356228 -6.78E-05
    22 OT DIIS     0.15E+00   25.5     0.00000392     -5912.7083073282 -7.17E-05
    23 OT DIIS     0.15E+00   26.3     0.00000449     -5912.7083881468 -8.08E-05
    24 OT DIIS     0.15E+00   25.5     0.00000428     -5912.7084732351 -8.51E-05
    25 OT DIIS     0.15E+00   25.1     0.00000332     -5912.7085130098 -3.98E-05
    26 OT DIIS     0.15E+00   25.8     0.00000300     -5912.7085614829 -4.85E-05
    27 OT DIIS     0.15E+00   26.4     0.00000314     -5912.7086108274 -4.93E-05
    28 OT DIIS     0.15E+00   26.5     0.00000337     -5912.7086482399 -3.74E-05
    29 OT DIIS     0.15E+00   26.6     0.00000350     -5912.7087105979 -6.24E-05
    30 OT DIIS     0.15E+00   26.4     0.00000346     -5912.7087592390 -4.86E-05

  Leaving inner SCF loop after reaching    30 steps.


  Electronic density on regular grids:      -3468.0000005805       -0.0000005805
  Core density on regular grids:             3467.9999999952       -0.0000000048
  Total charge density on r-space grids:       -0.0000005853
  Total charge density g-space grids:          -0.0000005843

  Overlap energy of the core charge distribution:               0.00000032801693
  Self energy of the core charge distribution:             -13952.81139369569428
  Core Hamiltonian energy:                                   3143.50886454381271
  Hartree energy:                                            6202.71389476652348
  Exchange-correlation energy:                              -1303.65841406665959
  Dispersion energy:                                           -2.46171111499073

  Total energy:                                             -5912.70875923899257

  outer SCF iter =    2 RMS gradient =   0.35E-05 energy =      -5912.7087592390

  ----------------------------------- OT ---------------------------------------
  Minimizer      : DIIS                : direct inversion
                                         in the iterative subspace
                                         using   8 DIIS vectors
                                         safer DIIS on
  Preconditioner : FULL_KINETIC        : inversion of T + eS
  Precond_solver : DEFAULT
  stepsize       :    0.15000000                  energy_gap     :    0.00010000
  eps_taylor     :   0.10000E-15                  max_taylor     :             4
  ----------------------------------- OT ---------------------------------------

  Step     Update method      Time    Convergence         Total energy    Change
  ------------------------------------------------------------------------------
     1 OT DIIS     0.15E+00   61.2     0.00000306     -5912.7087923929 -3.32E-05
     2 OT DIIS     0.15E+00   25.8     0.00001245     -5912.7087876307  4.76E-06
     3 OT DIIS     0.15E+00   25.4     0.00000253     -5912.7088063093 -1.87E-05
     4 OT DIIS     0.15E+00   25.8     0.00000254     -5912.7088133071 -7.00E-06
     5 OT DIIS     0.15E+00   26.1     0.00000367     -5912.7088385381 -2.52E-05
     6 OT DIIS     0.15E+00   25.7     0.00000282     -5912.7088602317 -2.17E-05
     7 OT DIIS     0.15E+00   25.4     0.00000205     -5912.7088873407 -2.71E-05
     8 OT DIIS     0.15E+00   26.4     0.00000170     -5912.7089242743 -3.69E-05
     9 OT DIIS     0.15E+00   25.4     0.00000189     -5912.7089368057 -1.25E-05
    10 OT DIIS     0.15E+00   26.2     0.00000215     -5912.7089421435 -5.34E-06
    11 OT DIIS     0.15E+00   27.1     0.00000172     -5912.7089550539 -1.29E-05
    12 OT DIIS     0.15E+00   26.6     0.00000188     -5912.7089547709  2.83E-07
    13 OT DIIS     0.15E+00   26.9     0.00000154     -5912.7089635216 -8.75E-06
    14 OT DIIS     0.15E+00   27.0     0.00000161     -5912.7089733517 -9.83E-06
    15 OT DIIS     0.15E+00   27.2     0.00000152     -5912.7089765664 -3.21E-06
    16 OT DIIS     0.15E+00   27.1     0.00000144     -5912.7089833828 -6.82E-06
    17 OT DIIS     0.15E+00   26.1     0.00000153     -5912.7089914057 -8.02E-06
    18 OT DIIS     0.15E+00   26.6     0.00000139     -5912.7089971017 -5.70E-06
    19 OT DIIS     0.15E+00   25.8     0.00000141     -5912.7090075306 -1.04E-05
    20 OT DIIS     0.15E+00   25.3     0.00000158     -5912.7090155454 -8.01E-06
    21 OT DIIS     0.15E+00   24.5     0.00000131     -5912.7090294218 -1.39E-05
    22 OT DIIS     0.15E+00   26.4     0.00000138     -5912.7090436342 -1.42E-05
    23 OT DIIS     0.15E+00   25.3     0.00000144     -5912.7090544048 -1.08E-05
    24 OT DIIS     0.15E+00   25.8     0.00000131     -5912.7090647540 -1.03E-05
    25 OT DIIS     0.15E+00   26.0     0.00000144     -5912.7090784715 -1.37E-05
    26 OT DIIS     0.15E+00   26.2     0.00000135     -5912.7090946176 -1.61E-05
    27 OT DIIS     0.15E+00   25.9     0.00000133     -5912.7091102829 -1.57E-05
    28 OT DIIS     0.15E+00   26.0     0.00000138     -5912.7091240021 -1.37E-05
    29 OT DIIS     0.15E+00   25.7     0.00000124     -5912.7091393028 -1.53E-05
    30 OT DIIS     0.15E+00   26.4     0.00000129     -5912.7091529243 -1.36E-05

  Leaving inner SCF loop after reaching    30 steps.


  Electronic density on regular grids:      -3468.0000000026       -0.0000000026
  Core density on regular grids:             3467.9999999952       -0.0000000048
  Total charge density on r-space grids:       -0.0000000074
  Total charge density g-space grids:          -0.0000000064

  Overlap energy of the core charge distribution:               0.00000032801693
  Self energy of the core charge distribution:             -13952.81139369569428
  Core Hamiltonian energy:                                   3143.50041244863041
  Hartree energy:                                            6202.71864885075956
  Exchange-correlation energy:                              -1303.65510974104382
  Dispersion energy:                                           -2.46171111499073

  Total energy:                                             -5912.70915292432164

  outer SCF iter =    3 RMS gradient =   0.13E-05 energy =      -5912.7091529243

  ----------------------------------- OT ---------------------------------------
  Minimizer      : DIIS                : direct inversion
                                         in the iterative subspace
                                         using   8 DIIS vectors
                                         safer DIIS on
  Preconditioner : FULL_KINETIC        : inversion of T + eS
  Precond_solver : DEFAULT
  stepsize       :    0.15000000                  energy_gap     :    0.00010000
  eps_taylor     :   0.10000E-15                  max_taylor     :             4
  ----------------------------------- OT ---------------------------------------

  Step     Update method      Time    Convergence         Total energy    Change
  ------------------------------------------------------------------------------
     1 OT DIIS     0.15E+00   58.8     0.00000116     -5912.7091619937 -9.07E-06
     2 OT DIIS     0.15E+00   26.6     0.00000340     -5912.7091628105 -8.17E-07
     3 OT DIIS     0.15E+00   26.6     0.00000111     -5912.7091643264 -1.52E-06
     4 OT DIIS     0.15E+00   26.5     0.00000102     -5912.7091651409 -8.15E-07
     5 OT DIIS     0.15E+00   26.4     0.00000116     -5912.7091701404 -5.00E-06
     6 OT DIIS     0.15E+00   26.6     0.00000151     -5912.7091757434 -5.60E-06
     7 OT DIIS     0.15E+00   26.8     0.00000086     -5912.7091799037 -4.16E-06

  *** SCF run converged in     7 steps ***


  Electronic density on regular grids:      -3468.0000000014       -0.0000000014
  Core density on regular grids:             3467.9999999952       -0.0000000048
  Total charge density on r-space grids:       -0.0000000062
  Total charge density g-space grids:          -0.0000000051

  Overlap energy of the core charge distribution:               0.00000032801693
  Self energy of the core charge distribution:             -13952.81139369569428
  Core Hamiltonian energy:                                   3143.50094434023458
  Hartree energy:                                            6202.71842201150321
  Exchange-correlation energy:                              -1303.65544177278116
  Dispersion energy:                                           -2.46171111499073

  Total energy:                                             -5912.70917990371254

  outer SCF iter =    4 RMS gradient =   0.86E-06 energy =      -5912.7091799037
  outer SCF loop converged in   4 iterations or   97 steps


 ENERGY| Total FORCE_EVAL ( QS ) energy (a.u.):            -5912.709185958943635


 --------  Informations at step =     0 ------------
  Optimization Method        =                 BFGS
  Total Energy               =     -5912.7091859589
  Used time                  =             2623.421
 ---------------------------------------------------

 --------------------------
 OPTIMIZATION STEP:      1
 --------------------------

 Number of electrons:                                                       3468
 Number of occupied orbitals:                                               1734
 Number of molecular orbitals:                                              1734

 Number of orbital functions:                                               7512
 Number of independent orbital functions:                                   7512

 Extrapolation method: ASPC


 SCF WAVEFUNCTION OPTIMIZATION

  ----------------------------------- OT ---------------------------------------
  Minimizer      : DIIS                : direct inversion
                                         in the iterative subspace
                                         using   8 DIIS vectors
                                         safer DIIS on
  Preconditioner : FULL_KINETIC        : inversion of T + eS
  Precond_solver : DEFAULT
  stepsize       :    0.15000000                  energy_gap     :    0.00010000
  eps_taylor     :   0.10000E-15                  max_taylor     :             4
  ----------------------------------- OT ---------------------------------------

  Step     Update method      Time    Convergence         Total energy    Change
  ------------------------------------------------------------------------------
     1 OT DIIS     0.15E+00   27.2     0.00001267     -5912.7100073217 -5.91E+03
     2 OT DIIS     0.15E+00   27.3     0.00000853     -5912.7102596553 -2.52E-04
     3 OT DIIS     0.15E+00   26.9     0.00001210     -5912.7104270567 -1.67E-04
     4 OT DIIS     0.15E+00   26.9     0.00001234     -5912.7104596505 -3.26E-05
     5 OT DIIS     0.15E+00   27.0     0.00000749     -5912.7105115555 -5.19E-05
     6 OT DIIS     0.15E+00   26.2     0.00000432     -5912.7105747890 -6.32E-05
     7 OT DIIS     0.15E+00   26.8     0.00000582     -5912.7106027363 -2.79E-05
     8 OT DIIS     0.15E+00   27.0     0.00000554     -5912.7106164107 -1.37E-05
     9 OT DIIS     0.15E+00   28.0     0.00000265     -5912.7106318354 -1.54E-05
    10 OT DIIS     0.15E+00   27.7     0.00000196     -5912.7106459241 -1.41E-05
    11 OT DIIS     0.15E+00   27.5     0.00000270     -5912.7106544603 -8.54E-06
    12 OT DIIS     0.15E+00   26.9     0.00000284     -5912.7106587505 -4.29E-06
    13 OT DIIS     0.15E+00   26.9     0.00000231     -5912.7106652722 -6.52E-06
    14 OT DIIS     0.15E+00   26.4     0.00000219     -5912.7106682041 -2.93E-06
    15 OT DIIS     0.15E+00   26.3     0.00000143     -5912.7106742930 -6.09E-06
    16 OT DIIS     0.15E+00   25.5     0.00000134     -5912.7106791475 -4.85E-06
    17 OT DIIS     0.15E+00   25.4     0.00000178     -5912.7106821042 -2.96E-06
    18 OT DIIS     0.15E+00   26.8     0.00000123     -5912.7106854299 -3.33E-06
    19 OT DIIS     0.15E+00   26.6     0.00000107     -5912.7106897624 -4.33E-06
    20 OT DIIS     0.15E+00   27.1     0.00000115     -5912.7106943009 -4.54E-06
    21 OT DIIS     0.15E+00   26.2     0.00000141     -5912.7106957377 -1.44E-06
    22 OT DIIS     0.15E+00   25.5     0.00000110     -5912.7106984207 -2.68E-06
    23 OT DIIS     0.15E+00   26.0     0.00000121     -5912.7106998421 -1.42E-06
    24 OT DIIS     0.15E+00   26.9     0.00000091     -5912.7107024171 -2.57E-06

  *** SCF run converged in    24 steps ***


  Electronic density on regular grids:      -3468.0000000018       -0.0000000018
  Core density on regular grids:             3467.9999999952       -0.0000000048
  Total charge density on r-space grids:       -0.0000000065
  Total charge density g-space grids:          -0.0000000055

  Overlap energy of the core charge distribution:               0.00000032729326
  Self energy of the core charge distribution:             -13952.81139369569428
  Core Hamiltonian energy:                                   3143.43113706960730
  Hartree energy:                                            6202.76434200296990
  Exchange-correlation energy:                              -1303.63300148746112
  Dispersion energy:                                           -2.46178663380001

  Total energy:                                             -5912.71070241708549

  outer SCF iter =    1 RMS gradient =   0.91E-06 energy =      -5912.7107024171
  outer SCF loop converged in   1 iterations or   24 steps


 ENERGY| Total FORCE_EVAL ( QS ) energy (a.u.):            -5912.710705221315948


 --------  Informations at step =     1 ------------
  Optimization Method        =                 BFGS
  Total Energy               =     -5912.7107052213
  Real energy change         =        -0.0015192624
  Predicted change in energy =        -0.0009443463
  Scaling factor             =         0.0000000000
  Step size                  =         0.0452322830
  Trust radius               =         0.4724315332
  Decrease in energy         =                  YES
  Used time                  =              679.923

  Convergence check :
  Max. step size             =         0.0452322830
  Conv. limit for step size  =         0.0030000000
  Convergence in step size   =                   NO
  RMS step size              =         0.0026647573
  Conv. limit for RMS step   =         0.0015000000
  Convergence in RMS step    =                   NO
  Max. gradient              =         0.0052280909
  Conv. limit for gradients  =         0.0004500000
  Conv. for gradients        =                   NO
  RMS gradient               =         0.0003068681
  Conv. limit for RMS grad.  =         0.0003000000
  Conv. for gradients        =                   NO
 ---------------------------------------------------

 --------------------------
 OPTIMIZATION STEP:      2
 --------------------------

 Number of electrons:                                                       3468
 Number of occupied orbitals:                                               1734
 Number of molecular orbitals:                                              1734

 Number of orbital functions:                                               7512
 Number of independent orbital functions:                                   7512

 Extrapolation method: ASPC


 SCF WAVEFUNCTION OPTIMIZATION

  ----------------------------------- OT ---------------------------------------
  Minimizer      : DIIS                : direct inversion
                                         in the iterative subspace
                                         using   8 DIIS vectors
                                         safer DIIS on
  Preconditioner : FULL_KINETIC        : inversion of T + eS
  Precond_solver : DEFAULT
  stepsize       :    0.15000000                  energy_gap     :    0.00010000
  eps_taylor     :   0.10000E-15                  max_taylor     :             4
  ----------------------------------- OT ---------------------------------------

  Step     Update method      Time    Convergence         Total energy    Change
  ------------------------------------------------------------------------------
     1 OT DIIS     0.15E+00   26.7     0.00001063     -5912.7114006307 -5.91E+03
     2 OT DIIS     0.15E+00   25.2     0.00000831     -5912.7115794347 -1.79E-04
     3 OT DIIS     0.15E+00   25.8     0.00002680     -5912.7115932361 -1.38E-05
     4 OT DIIS     0.15E+00   25.9     0.00000888     -5912.7117302830 -1.37E-04
     5 OT DIIS     0.15E+00   24.5     0.00000549     -5912.7117715594 -4.13E-05
     6 OT DIIS     0.15E+00   25.1     0.00000655     -5912.7118226953 -5.11E-05
     7 OT DIIS     0.15E+00   25.1     0.00000656     -5912.7118385401 -1.58E-05
     8 OT DIIS     0.15E+00   25.9     0.00000326     -5912.7118593509 -2.08E-05
     9 OT DIIS     0.15E+00   27.3     0.00000229     -5912.7118784934 -1.91E-05
    10 OT DIIS     0.15E+00   25.8     0.00000288     -5912.7118907307 -1.22E-05
    11 OT DIIS     0.15E+00   26.2     0.00000302     -5912.7118930249 -2.29E-06
    12 OT DIIS     0.15E+00   25.6     0.00000219     -5912.7119031003 -1.01E-05
    13 OT DIIS     0.15E+00   25.7     0.00000291     -5912.7119071873 -4.09E-06
    14 OT DIIS     0.15E+00   26.4     0.00000177     -5912.7119131533 -5.97E-06
    15 OT DIIS     0.15E+00   26.9     0.00000164     -5912.7119212043 -8.05E-06
    16 OT DIIS     0.15E+00   26.3     0.00000209     -5912.7119263166 -5.11E-06
    17 OT DIIS     0.15E+00   25.8     0.00000144     -5912.7119310861 -4.77E-06
    18 OT DIIS     0.15E+00   24.1     0.00000131     -5912.7119385680 -7.48E-06
    19 OT DIIS     0.15E+00   26.2     0.00000140     -5912.7119461347 -7.57E-06
    20 OT DIIS     0.15E+00   26.9     0.00000179     -5912.7119485711 -2.44E-06
    21 OT DIIS     0.15E+00   25.6     0.00000135     -5912.7119551421 -6.57E-06
    22 OT DIIS     0.15E+00   26.2     0.00000161     -5912.7119583272 -3.19E-06
    23 OT DIIS     0.15E+00   25.9     0.00000122     -5912.7119620299 -3.70E-06
    24 OT DIIS     0.15E+00   26.5     0.00000131     -5912.7119664748 -4.44E-06
    25 OT DIIS     0.15E+00   26.5     0.00000116     -5912.7119701984 -3.72E-06
    26 OT DIIS     0.15E+00   26.3     0.00000103     -5912.7119747694 -4.57E-06
    27 OT DIIS     0.15E+00   25.7     0.00000106     -5912.7119806776 -5.91E-06
    28 OT DIIS     0.15E+00   25.3     0.00000121     -5912.7119841691 -3.49E-06
    29 OT DIIS     0.15E+00   25.7     0.00000095     -5912.7119887584 -4.59E-06

  *** SCF run converged in    29 steps ***


  Electronic density on regular grids:      -3468.0000000012       -0.0000000012
  Core density on regular grids:             3467.9999999952       -0.0000000048
  Total charge density on r-space grids:       -0.0000000060
  Total charge density g-space grids:          -0.0000000051

  Overlap energy of the core charge distribution:               0.00000032664501
  Self energy of the core charge distribution:             -13952.81139369569428
  Core Hamiltonian energy:                                   3143.34308376067611
  Hartree energy:                                            6202.82283363962324
  Exchange-correlation energy:                              -1303.60463574931418
  Dispersion energy:                                           -2.46187704030570

  Total energy:                                             -5912.71198875836944

  outer SCF iter =    1 RMS gradient =   0.95E-06 energy =      -5912.7119887584
  outer SCF loop converged in   1 iterations or   29 steps


 ENERGY| Total FORCE_EVAL ( QS ) energy (a.u.):            -5912.711993692259966


 --------  Informations at step =     2 ------------
  Optimization Method        =                 BFGS
  Total Energy               =     -5912.7119936923
  Real energy change         =        -0.0012884709
  Predicted change in energy =        -0.0010517144
  Scaling factor             =         0.0000000000
  Step size                  =         0.0854620721
  Trust radius               =         0.4724315332
  Decrease in energy         =                  YES
  Used time                  =              792.919

  Convergence check :
  Max. step size             =         0.0854620721
  Conv. limit for step size  =         0.0030000000
  Convergence in step size   =                   NO
  RMS step size              =         0.0049771372
  Conv. limit for RMS step   =         0.0015000000
  Convergence in RMS step    =                   NO
  Max. gradient              =         0.0020958940
  Conv. limit for gradients  =         0.0004500000
  Conv. for gradients        =                   NO
  RMS gradient               =         0.0001628851
  Conv. limit for RMS grad.  =         0.0003000000
  Conv. in RMS gradients     =                  YES
 ---------------------------------------------------

 --------------------------
 OPTIMIZATION STEP:      3
 --------------------------

 Number of electrons:                                                       3468
 Number of occupied orbitals:                                               1734
 Number of molecular orbitals:                                              1734

 Number of orbital functions:                                               7512
 Number of independent orbital functions:                                   7512

 Extrapolation method: ASPC


 SCF WAVEFUNCTION OPTIMIZATION

  ----------------------------------- OT ---------------------------------------
  Minimizer      : DIIS                : direct inversion
                                         in the iterative subspace
                                         using   8 DIIS vectors
                                         safer DIIS on
  Preconditioner : FULL_KINETIC        : inversion of T + eS
  Precond_solver : DEFAULT
  stepsize       :    0.15000000                  energy_gap     :    0.00010000
  eps_taylor     :   0.10000E-15                  max_taylor     :             4
  ----------------------------------- OT ---------------------------------------

  Step     Update method      Time    Convergence         Total energy    Change
  ------------------------------------------------------------------------------
     1 OT DIIS     0.15E+00   27.1     0.00001973     -5912.7106146441 -5.91E+03
     2 OT DIIS     0.15E+00   26.4     0.00001880     -5912.7112185829 -6.04E-04
     3 OT DIIS     0.15E+00   27.4     0.00004923     -5912.7111653245  5.33E-05
     4 OT DIIS     0.15E+00   28.2     0.00001036     -5912.7118069973 -6.42E-04
     5 OT DIIS     0.15E+00   26.0     0.00001405     -5912.7119313323 -1.24E-04
     6 OT DIIS     0.15E+00   25.9     0.00001895     -5912.7120285010 -9.72E-05
     7 OT DIIS     0.15E+00   25.4     0.00000674     -5912.7121564802 -1.28E-04
     8 OT DIIS     0.15E+00   26.6     0.00000615     -5912.7122264281 -6.99E-05
     9 OT DIIS     0.15E+00   26.5     0.00000714     -5912.7122764088 -5.00E-05
    10 OT DIIS     0.15E+00   26.1     0.00000635     -5912.7122971691 -2.08E-05
    11 OT DIIS     0.15E+00   26.4     0.00000341     -5912.7123184999 -2.13E-05
    12 OT DIIS     0.15E+00   26.9     0.00000575     -5912.7123447576 -2.63E-05
    13 OT DIIS     0.15E+00   27.4     0.00000352     -5912.7123502550 -5.50E-06
    14 OT DIIS     0.15E+00   27.3     0.00000269     -5912.7123661274 -1.59E-05
    15 OT DIIS     0.15E+00   26.6     0.00000351     -5912.7123747780 -8.65E-06
    16 OT DIIS     0.15E+00   25.0     0.00000230     -5912.7123804783 -5.70E-06
    17 OT DIIS     0.15E+00   25.8     0.00000162     -5912.7123874947 -7.02E-06
    18 OT DIIS     0.15E+00   26.1     0.00000183     -5912.7123929914 -5.50E-06
    19 OT DIIS     0.15E+00   26.8     0.00000243     -5912.7123955186 -2.53E-06
    20 OT DIIS     0.15E+00   27.3     0.00000133     -5912.7123978546 -2.34E-06
    21 OT DIIS     0.15E+00   26.6     0.00000180     -5912.7124008715 -3.02E-06
    22 OT DIIS     0.15E+00   27.0     0.00000137     -5912.7124013986 -5.27E-07
    23 OT DIIS     0.15E+00   26.8     0.00000117     -5912.7124030349 -1.64E-06
    24 OT DIIS     0.15E+00   26.3     0.00000124     -5912.7124039388 -9.04E-07
    25 OT DIIS     0.15E+00   27.2     0.00000085     -5912.7124049080 -9.69E-07

  *** SCF run converged in    25 steps ***


  Electronic density on regular grids:      -3468.0000000013       -0.0000000013
  Core density on regular grids:             3467.9999999952       -0.0000000048
  Total charge density on r-space grids:       -0.0000000061
  Total charge density g-space grids:          -0.0000000050

  Overlap energy of the core charge distribution:               0.00000032660259
  Self energy of the core charge distribution:             -13952.81139369569428
  Core Hamiltonian energy:                                   3143.32447671891532
  Hartree energy:                                            6202.83529595761956
  Exchange-correlation energy:                              -1303.59892072508092
  Dispersion energy:                                           -2.46186349037544

  Total energy:                                             -5912.71240490801119

  outer SCF iter =    1 RMS gradient =   0.85E-06 energy =      -5912.7124049080
  outer SCF loop converged in   1 iterations or   25 steps


 ENERGY| Total FORCE_EVAL ( QS ) energy (a.u.):            -5912.712405959392527


 --------  Informations at step =     3 ------------
  Optimization Method        =                 BFGS
  Total Energy               =     -5912.7124059594
  Real energy change         =        -0.0004122671
  Predicted change in energy =        -0.0002211923
  Scaling factor             =         0.0000000000
  Step size                  =         0.0339364809
  Trust radius               =         0.4724315332
  Decrease in energy         =                  YES
  Used time                  =              707.719

  Convergence check :
  Max. step size             =         0.0339364809
  Conv. limit for step size  =         0.0030000000
  Convergence in step size   =                   NO
  RMS step size              =         0.0024000869
  Conv. limit for RMS step   =         0.0015000000
  Convergence in RMS step    =                   NO
  Max. gradient              =         0.0021983442
  Conv. limit for gradients  =         0.0004500000
  Conv. for gradients        =                   NO
  RMS gradient               =         0.0001579616
  Conv. limit for RMS grad.  =         0.0003000000
  Conv. in RMS gradients     =                  YES
 ---------------------------------------------------

 --------------------------
 OPTIMIZATION STEP:      4
 --------------------------

 Number of electrons:                                                       3468
 Number of occupied orbitals:                                               1734
 Number of molecular orbitals:                                              1734

 Number of orbital functions:                                               7512
 Number of independent orbital functions:                                   7512

 Extrapolation method: ASPC


 SCF WAVEFUNCTION OPTIMIZATION

  ----------------------------------- OT ---------------------------------------
  Minimizer      : DIIS                : direct inversion
                                         in the iterative subspace
                                         using   8 DIIS vectors
                                         safer DIIS on
  Preconditioner : FULL_KINETIC        : inversion of T + eS
  Precond_solver : DEFAULT
  stepsize       :    0.15000000                  energy_gap     :    0.00010000
  eps_taylor     :   0.10000E-15                  max_taylor     :             4
  ----------------------------------- OT ---------------------------------------

  Step     Update method      Time    Convergence         Total energy    Change
  ------------------------------------------------------------------------------
     1 OT DIIS     0.15E+00   27.4     0.00001761     -5912.7113195616 -5.91E+03
     2 OT DIIS     0.15E+00   26.9     0.00001877     -5912.7117988929 -4.79E-04
     3 OT DIIS     0.15E+00   26.4     0.00003787     -5912.7117978007  1.09E-06
     4 OT DIIS     0.15E+00   26.9     0.00001184     -5912.7123039536 -5.06E-04
     5 OT DIIS     0.15E+00   26.5     0.00000941     -5912.7124234820 -1.20E-04
     6 OT DIIS     0.15E+00   26.7     0.00001492     -5912.7125571077 -1.34E-04
     7 OT DIIS     0.15E+00   26.2     0.00001030     -5912.7126286454 -7.15E-05
     8 OT DIIS     0.15E+00   26.4     0.00000516     -5912.7126873563 -5.87E-05
     9 OT DIIS     0.15E+00   26.3     0.00000468     -5912.7127359073 -4.86E-05
    10 OT DIIS     0.15E+00   25.3     0.00000721     -5912.7127506802 -1.48E-05
    11 OT DIIS     0.15E+00   24.8     0.00000323     -5912.7127652053 -1.45E-05
    12 OT DIIS     0.15E+00   23.9     0.00000524     -5912.7127819426 -1.67E-05
    13 OT DIIS     0.15E+00   24.8     0.00000329     -5912.7127893233 -7.38E-06
    14 OT DIIS     0.15E+00   25.9     0.00000221     -5912.7127997248 -1.04E-05
    15 OT DIIS     0.15E+00   26.6     0.00000228     -5912.7128086831 -8.96E-06
    16 OT DIIS     0.15E+00   26.6     0.00000267     -5912.7128127134 -4.03E-06
    17 OT DIIS     0.15E+00   25.4     0.00000157     -5912.7128171926 -4.48E-06
    18 OT DIIS     0.15E+00   25.7     0.00000139     -5912.7128225095 -5.32E-06
    19 OT DIIS     0.15E+00   25.5     0.00000242     -5912.7128252434 -2.73E-06
    20 OT DIIS     0.15E+00   26.0     0.00000133     -5912.7128268891 -1.65E-06
    21 OT DIIS     0.15E+00   25.9     0.00000165     -5912.7128296707 -2.78E-06
    22 OT DIIS     0.15E+00   25.4     0.00000136     -5912.7128304327 -7.62E-07
    23 OT DIIS     0.15E+00   25.4     0.00000095     -5912.7128321341 -1.70E-06

  *** SCF run converged in    23 steps ***


  Electronic density on regular grids:      -3468.0000000012       -0.0000000012
  Core density on regular grids:             3467.9999999952       -0.0000000048
  Total charge density on r-space grids:       -0.0000000060
  Total charge density g-space grids:          -0.0000000050

  Overlap energy of the core charge distribution:               0.00000032677655
  Self energy of the core charge distribution:             -13952.81139369569428
  Core Hamiltonian energy:                                   3143.32201354539256
  Hartree energy:                                            6202.83706542538857
  Exchange-correlation energy:                              -1303.59874631431330
  Dispersion energy:                                           -2.46177142160459

  Total energy:                                             -5912.71283213405604

  outer SCF iter =    1 RMS gradient =   0.95E-06 energy =      -5912.7128321341
  outer SCF loop converged in   1 iterations or   23 steps


 ENERGY| Total FORCE_EVAL ( QS ) energy (a.u.):            -5912.712833454214888


 --------  Informations at step =     4 ------------
  Optimization Method        =                 BFGS
  Total Energy               =     -5912.7128334542
  Real energy change         =        -0.0004274948
  Predicted change in energy =        -0.0003710677
  Scaling factor             =         0.0000000000
  Step size                  =         0.0695566559
  Trust radius               =         0.4724315332
  Decrease in energy         =                  YES
  Used time                  =              640.552

  Convergence check :
  Max. step size             =         0.0695566559
  Conv. limit for step size  =         0.0030000000
  Convergence in step size   =                   NO
  RMS step size              =         0.0047228815
  Conv. limit for RMS step   =         0.0015000000
  Convergence in RMS step    =                   NO
  Max. gradient              =         0.0023605712
  Conv. limit for gradients  =         0.0004500000
  Conv. for gradients        =                   NO
  RMS gradient               =         0.0001362574
  Conv. limit for RMS grad.  =         0.0003000000
  Conv. in RMS gradients     =                  YES
 ---------------------------------------------------

 --------------------------
 OPTIMIZATION STEP:      5
 --------------------------

 Number of electrons:                                                       3468
 Number of occupied orbitals:                                               1734
 Number of molecular orbitals:                                              1734

 Number of orbital functions:                                               7512
 Number of independent orbital functions:                                   7512

 Extrapolation method: ASPC


 SCF WAVEFUNCTION OPTIMIZATION

  ----------------------------------- OT ---------------------------------------
  Minimizer      : DIIS                : direct inversion
                                         in the iterative subspace
                                         using   8 DIIS vectors
                                         safer DIIS on
  Preconditioner : FULL_KINETIC        : inversion of T + eS
  Precond_solver : DEFAULT
  stepsize       :    0.15000000                  energy_gap     :    0.00010000
  eps_taylor     :   0.10000E-15                  max_taylor     :             4
  ----------------------------------- OT ---------------------------------------

  Step     Update method      Time    Convergence         Total energy    Change
  ------------------------------------------------------------------------------
     1 OT DIIS     0.15E+00   26.2     0.00002189     -5912.7106069846 -5.91E+03
     2 OT DIIS     0.15E+00   25.5     0.00002865     -5912.7113160040 -7.09E-04
     3 OT DIIS     0.15E+00   26.6     0.00003705     -5912.7113867129 -7.07E-05
     4 OT DIIS     0.15E+00   26.4     0.00001479     -5912.7121698848 -7.83E-04
     5 OT DIIS     0.15E+00   26.6     0.00001737     -5912.7123457883 -1.76E-04
     6 OT DIIS     0.15E+00   26.2     0.00002027     -5912.7124584586 -1.13E-04
     7 OT DIIS     0.15E+00   26.3     0.00000942     -5912.7126821422 -2.24E-04
     8 OT DIIS     0.15E+00   25.4     0.00000553     -5912.7127722266 -9.01E-05
     9 OT DIIS     0.15E+00   24.6     0.00000760     -5912.7128411616 -6.89E-05
    10 OT DIIS     0.15E+00   24.3     0.00000641     -5912.7128603900 -1.92E-05
    11 OT DIIS     0.15E+00   26.2     0.00000397     -5912.7128822287 -2.18E-05
    12 OT DIIS     0.15E+00   26.2     0.00000592     -5912.7129002973 -1.81E-05
    13 OT DIIS     0.15E+00   27.4     0.00000411     -5912.7129113072 -1.10E-05
    14 OT DIIS     0.15E+00   27.1     0.00000284     -5912.7129245023 -1.32E-05
    15 OT DIIS     0.15E+00   25.2     0.00000396     -5912.7129322754 -7.77E-06
    16 OT DIIS     0.15E+00   24.2     0.00000214     -5912.7129411688 -8.89E-06
    17 OT DIIS     0.15E+00   25.5     0.00000174     -5912.7129486565 -7.49E-06
    18 OT DIIS     0.15E+00   25.6     0.00000184     -5912.7129560309 -7.37E-06
    19 OT DIIS     0.15E+00   25.8     0.00000261     -5912.7129599157 -3.88E-06
    20 OT DIIS     0.15E+00   25.3     0.00000154     -5912.7129631849 -3.27E-06
    21 OT DIIS     0.15E+00   25.9     0.00000202     -5912.7129677128 -4.53E-06
    22 OT DIIS     0.15E+00   25.7     0.00000162     -5912.7129695754 -1.86E-06
    23 OT DIIS     0.15E+00   26.0     0.00000127     -5912.7129721706 -2.60E-06
    24 OT DIIS     0.15E+00   26.4     0.00000158     -5912.7129747434 -2.57E-06
    25 OT DIIS     0.15E+00   26.2     0.00000115     -5912.7129770098 -2.27E-06
    26 OT DIIS     0.15E+00   25.7     0.00000102     -5912.7129798115 -2.80E-06
    27 OT DIIS     0.15E+00   25.4     0.00000101     -5912.7129835402 -3.73E-06
    28 OT DIIS     0.15E+00   25.1     0.00000127     -5912.7129859212 -2.38E-06
    29 OT DIIS     0.15E+00   25.7     0.00000097     -5912.7129876339 -1.71E-06

  *** SCF run converged in    29 steps ***


  Electronic density on regular grids:      -3468.0000000011       -0.0000000011
  Core density on regular grids:             3467.9999999952       -0.0000000048
  Total charge density on r-space grids:       -0.0000000058
  Total charge density g-space grids:          -0.0000000049

  Overlap energy of the core charge distribution:               0.00000032696291
  Self energy of the core charge distribution:             -13952.81139369569428
  Core Hamiltonian energy:                                   3143.33644969875513
  Hartree energy:                                            6202.82767956374664
  Exchange-correlation energy:                              -1303.60402534134300
  Dispersion energy:                                           -2.46169818634993

  Total energy:                                             -5912.71298763392133

  outer SCF iter =    1 RMS gradient =   0.97E-06 energy =      -5912.7129876339
  outer SCF loop converged in   1 iterations or   29 steps


 ENERGY| Total FORCE_EVAL ( QS ) energy (a.u.):            -5912.712991120598417


 --------  Informations at step =     5 ------------
  Optimization Method        =                 BFGS
  Total Energy               =     -5912.7129911206
  Real energy change         =        -0.0001576664
  Predicted change in energy =        -0.0001294776
  Scaling factor             =         0.0000000000
  Step size                  =         0.0366863145
  Trust radius               =         0.4724315332
  Decrease in energy         =                  YES
  Used time                  =              793.535

  Convergence check :
  Max. step size             =         0.0366863145
  Conv. limit for step size  =         0.0030000000
  Convergence in step size   =                   NO
  RMS step size              =         0.0026699584
  Conv. limit for RMS step   =         0.0015000000
  Convergence in RMS step    =                   NO
  Max. gradient              =         0.0026362231
  Conv. limit for gradients  =         0.0004500000
  Conv. for gradients        =                   NO
  RMS gradient               =         0.0001410116
  Conv. limit for RMS grad.  =         0.0003000000
  Conv. in RMS gradients     =                  YES
 ---------------------------------------------------

 --------------------------
 OPTIMIZATION STEP:      6
 --------------------------

 Number of electrons:                                                       3468
 Number of occupied orbitals:                                               1734
 Number of molecular orbitals:                                              1734

 Number of orbital functions:                                               7512
 Number of independent orbital functions:                                   7512

 Extrapolation method: ASPC


 SCF WAVEFUNCTION OPTIMIZATION

  ----------------------------------- OT ---------------------------------------
  Minimizer      : DIIS                : direct inversion
                                         in the iterative subspace
                                         using   8 DIIS vectors
                                         safer DIIS on
  Preconditioner : FULL_KINETIC        : inversion of T + eS
  Precond_solver : DEFAULT
  stepsize       :    0.15000000                  energy_gap     :    0.00010000
  eps_taylor     :   0.10000E-15                  max_taylor     :             4
  ----------------------------------- OT ---------------------------------------

  Step     Update method      Time    Convergence         Total energy    Change
  ------------------------------------------------------------------------------
     1 OT DIIS     0.15E+00   26.1     0.00001463     -5912.7122333788 -5.91E+03
     2 OT DIIS     0.15E+00   25.2     0.00001623     -5912.7125711599 -3.38E-04
     3 OT DIIS     0.15E+00   25.3     0.00002770     -5912.7125977933 -2.66E-05
     4 OT DIIS     0.15E+00   26.7     0.00001304     -5912.7129620080 -3.64E-04
     5 OT DIIS     0.15E+00   26.3     0.00000843     -5912.7130818600 -1.20E-04
     6 OT DIIS     0.15E+00   25.9     0.00001587     -5912.7131469753 -6.51E-05
     7 OT DIIS     0.15E+00   25.6     0.00000837     -5912.7132230335 -7.61E-05
     8 OT DIIS     0.15E+00   26.5     0.00000354     -5912.7132736522 -5.06E-05
     9 OT DIIS     0.15E+00   26.9     0.00000371     -5912.7133035217 -2.99E-05
    10 OT DIIS     0.15E+00   27.8     0.00000566     -5912.7133139499 -1.04E-05
    11 OT DIIS     0.15E+00   27.6     0.00000289     -5912.7133197285 -5.78E-06
    12 OT DIIS     0.15E+00   27.0     0.00000450     -5912.7133288833 -9.15E-06
    13 OT DIIS     0.15E+00   26.8     0.00000241     -5912.7133344300 -5.55E-06
    14 OT DIIS     0.15E+00   27.3     0.00000187     -5912.7133393089 -4.88E-06
    15 OT DIIS     0.15E+00   26.0     0.00000213     -5912.7133437605 -4.45E-06
    16 OT DIIS     0.15E+00   26.7     0.00000185     -5912.7133461580 -2.40E-06
    17 OT DIIS     0.15E+00   27.0     0.00000115     -5912.7133490840 -2.93E-06
    18 OT DIIS     0.15E+00   27.8     0.00000105     -5912.7133520325 -2.95E-06
    19 OT DIIS     0.15E+00   26.7     0.00000169     -5912.7133537421 -1.71E-06
    20 OT DIIS     0.15E+00   26.9     0.00000107     -5912.7133545880 -8.46E-07
    21 OT DIIS     0.15E+00   26.6     0.00000135     -5912.7133560141 -1.43E-06
    22 OT DIIS     0.15E+00   27.1     0.00000096     -5912.7133567256 -7.11E-07

  *** SCF run converged in    22 steps ***


  Electronic density on regular grids:      -3468.0000000009       -0.0000000009
  Core density on regular grids:             3467.9999999953       -0.0000000047
  Total charge density on r-space grids:       -0.0000000056
  Total charge density g-space grids:          -0.0000000047

  Overlap energy of the core charge distribution:               0.00000032720841
  Self energy of the core charge distribution:             -13952.81139369569428
  Core Hamiltonian energy:                                   3143.37029910631691
  Hartree energy:                                            6202.80524438100565
  Exchange-correlation energy:                              -1303.61593979069244
  Dispersion energy:                                           -2.46156705374592

  Total energy:                                             -5912.71335672560053

  outer SCF iter =    1 RMS gradient =   0.96E-06 energy =      -5912.7133567256
  outer SCF loop converged in   1 iterations or   22 steps


 ENERGY| Total FORCE_EVAL ( QS ) energy (a.u.):            -5912.713357651787192


 --------  Informations at step =     6 ------------
  Optimization Method        =                 BFGS
  Total Energy               =     -5912.7133576518
  Real energy change         =        -0.0003665312
  Predicted change in energy =        -0.0002208176
  Scaling factor             =         0.0000000000
  Step size                  =         0.0461404032
  Trust radius               =         0.4724315332
  Decrease in energy         =                  YES
  Used time                  =              631.562

  Convergence check :
  Max. step size             =         0.0461404032
  Conv. limit for step size  =         0.0030000000
  Convergence in step size   =                   NO
  RMS step size              =         0.0040957979
  Conv. limit for RMS step   =         0.0015000000
  Convergence in RMS step    =                   NO
  Max. gradient              =         0.0022908646
  Conv. limit for gradients  =         0.0004500000
  Conv. for gradients        =                   NO
  RMS gradient               =         0.0001382167
  Conv. limit for RMS grad.  =         0.0003000000
  Conv. in RMS gradients     =                  YES
 ---------------------------------------------------

 --------------------------
 OPTIMIZATION STEP:      7
 --------------------------

 Number of electrons:                                                       3468
 Number of occupied orbitals:                                               1734
 Number of molecular orbitals:                                              1734

 Number of orbital functions:                                               7512
 Number of independent orbital functions:                                   7512

 Extrapolation method: ASPC


 SCF WAVEFUNCTION OPTIMIZATION

  ----------------------------------- OT ---------------------------------------
  Minimizer      : DIIS                : direct inversion
                                         in the iterative subspace
                                         using   8 DIIS vectors
                                         safer DIIS on
  Preconditioner : FULL_KINETIC        : inversion of T + eS
  Precond_solver : DEFAULT
  stepsize       :    0.15000000                  energy_gap     :    0.00010000
  eps_taylor     :   0.10000E-15                  max_taylor     :             4
  ----------------------------------- OT ---------------------------------------

  Step     Update method      Time    Convergence         Total energy    Change
  ------------------------------------------------------------------------------
     1 OT DIIS     0.15E+00   26.7     0.00001440     -5912.7125172675 -5.91E+03
     2 OT DIIS     0.15E+00   25.3     0.00001548     -5912.7128359556 -3.19E-04
     3 OT DIIS     0.15E+00   25.6     0.00002800     -5912.7128564804 -2.05E-05
     4 OT DIIS     0.15E+00   25.5     0.00002022     -5912.7130833958 -2.27E-04
     5 OT DIIS     0.15E+00   26.3     0.00000602     -5912.7132570870 -1.74E-04
     6 OT DIIS     0.15E+00   25.5     0.00001074     -5912.7133178206 -6.07E-05
     7 OT DIIS     0.15E+00   25.2     0.00000854     -5912.7133478686 -3.00E-05
     8 OT DIIS     0.15E+00   25.8     0.00000330     -5912.7133772283 -2.94E-05
     9 OT DIIS     0.15E+00   25.0     0.00000338     -5912.7133972377 -2.00E-05
    10 OT DIIS     0.15E+00   25.0     0.00000490     -5912.7134041801 -6.94E-06
    11 OT DIIS     0.15E+00   25.6     0.00000272     -5912.7134096558 -5.48E-06
    12 OT DIIS     0.15E+00   27.0     0.00000280     -5912.7134168460 -7.19E-06
    13 OT DIIS     0.15E+00   26.8     0.00000285     -5912.7134210715 -4.23E-06
    14 OT DIIS     0.15E+00   26.7     0.00000165     -5912.7134262869 -5.22E-06
    15 OT DIIS     0.15E+00   26.5     0.00000158     -5912.7134319086 -5.62E-06
    16 OT DIIS     0.15E+00   26.4     0.00000199     -5912.7134359607 -4.05E-06
    17 OT DIIS     0.15E+00   26.3     0.00000143     -5912.7134389360 -2.98E-06
    18 OT DIIS     0.15E+00   26.2     0.00000120     -5912.7134437024 -4.77E-06
    19 OT DIIS     0.15E+00   26.2     0.00000143     -5912.7134482081 -4.51E-06
    20 OT DIIS     0.15E+00   26.5     0.00000146     -5912.7134493392 -1.13E-06
    21 OT DIIS     0.15E+00   26.1     0.00000115     -5912.7134528416 -3.50E-06
    22 OT DIIS     0.15E+00   26.4     0.00000147     -5912.7134547837 -1.94E-06
    23 OT DIIS     0.15E+00   26.4     0.00000089     -5912.7134566621 -1.88E-06

  *** SCF run converged in    23 steps ***


  Electronic density on regular grids:      -3468.0000000012       -0.0000000012
  Core density on regular grids:             3467.9999999952       -0.0000000048
  Total charge density on r-space grids:       -0.0000000060
  Total charge density g-space grids:          -0.0000000050

  Overlap energy of the core charge distribution:               0.00000032751295
  Self energy of the core charge distribution:             -13952.81139369569428
  Core Hamiltonian energy:                                   3143.40830030028792
  Hartree energy:                                            6202.78095829098402
  Exchange-correlation energy:                              -1303.63009044273213
  Dispersion energy:                                           -2.46123144246430

  Total energy:                                             -5912.71345666210527

  outer SCF iter =    1 RMS gradient =   0.89E-06 energy =      -5912.7134566621
  outer SCF loop converged in   1 iterations or   23 steps


 ENERGY| Total FORCE_EVAL ( QS ) energy (a.u.):            -5912.713459190918911


 --------  Informations at step =     7 ------------
  Optimization Method        =                 BFGS
  Total Energy               =     -5912.7134591909
  Real energy change         =        -0.0001015391
  Predicted change in energy =        -0.0004412952
  Scaling factor             =         0.0000000000
  Step size                  =         0.1454887307
  Trust radius               =         0.4724315332
  Decrease in energy         =                  YES
  Used time                  =              645.902

  Convergence check :
  Max. step size             =         0.1454887307
  Conv. limit for step size  =         0.0030000000
  Convergence in step size   =                   NO
  RMS step size              =         0.0112828853
  Conv. limit for RMS step   =         0.0015000000
  Convergence in RMS step    =                   NO
  Max. gradient              =         0.0027671402
  Conv. limit for gradients  =         0.0004500000
  Conv. for gradients        =                   NO
  RMS gradient               =         0.0002776288
  Conv. limit for RMS grad.  =         0.0003000000
  Conv. in RMS gradients     =                  YES
 ---------------------------------------------------

 --------------------------
 OPTIMIZATION STEP:      8
 --------------------------

 Number of electrons:                                                       3468
 Number of occupied orbitals:                                               1734
 Number of molecular orbitals:                                              1734

 Number of orbital functions:                                               7512
 Number of independent orbital functions:                                   7512

 Extrapolation method: ASPC


 SCF WAVEFUNCTION OPTIMIZATION

  ----------------------------------- OT ---------------------------------------
  Minimizer      : DIIS                : direct inversion
                                         in the iterative subspace
                                         using   8 DIIS vectors
                                         safer DIIS on
  Preconditioner : FULL_KINETIC        : inversion of T + eS
  Precond_solver : DEFAULT
  stepsize       :    0.15000000                  energy_gap     :    0.00010000
  eps_taylor     :   0.10000E-15                  max_taylor     :             4
  ----------------------------------- OT ---------------------------------------

  Step     Update method      Time    Convergence         Total energy    Change
  ------------------------------------------------------------------------------
     1 OT DIIS     0.15E+00   25.0     0.00006420     -5912.6948520352 -5.91E+03
     2 OT DIIS     0.15E+00   26.3     0.00004923     -5912.7016996640 -6.85E-03
     3 OT DIIS     0.15E+00   26.7     0.00016978     -5912.7042094773 -2.51E-03
     4 OT DIIS     0.15E+00   26.9     0.00003526     -5912.7094958312 -5.29E-03
     5 OT DIIS     0.15E+00   26.5     0.00003569     -5912.7110496610 -1.55E-03
     6 OT DIIS     0.15E+00   26.2     0.00004987     -5912.7120353645 -9.86E-04
     7 OT DIIS     0.15E+00   25.9     0.00002544     -5912.7126083297 -5.73E-04
     8 OT DIIS     0.15E+00   25.5     0.00001701     -5912.7129728974 -3.65E-04
     9 OT DIIS     0.15E+00   25.6     0.00000994     -5912.7132788630 -3.06E-04
    10 OT DIIS     0.15E+00   25.4     0.00000811     -5912.7134497170 -1.71E-04
    11 OT DIIS     0.15E+00   25.5     0.00001330     -5912.7135207971 -7.11E-05
    12 OT DIIS     0.15E+00   25.1     0.00001053     -5912.7135811864 -6.04E-05
    13 OT DIIS     0.15E+00   24.5     0.00001156     -5912.7136255377 -4.44E-05
    14 OT DIIS     0.15E+00   24.8     0.00000603     -5912.7136693538 -4.38E-05
    15 OT DIIS     0.15E+00   25.6     0.00000531     -5912.7137207063 -5.14E-05
    16 OT DIIS     0.15E+00   26.3     0.00000660     -5912.7137445395 -2.38E-05
    17 OT DIIS     0.15E+00   25.6     0.00000418     -5912.7137650535 -2.05E-05
    18 OT DIIS     0.15E+00   24.8     0.00000308     -5912.7137911572 -2.61E-05
    19 OT DIIS     0.15E+00   24.7     0.00000271     -5912.7138104379 -1.93E-05
    20 OT DIIS     0.15E+00   23.8     0.00000332     -5912.7138225377 -1.21E-05
    21 OT DIIS     0.15E+00   25.5     0.00000411     -5912.7138289292 -6.39E-06
    22 OT DIIS     0.15E+00   24.5     0.00000314     -5912.7138344321 -5.50E-06
    23 OT DIIS     0.15E+00   25.1     0.00000281     -5912.7138377247 -3.29E-06
    24 OT DIIS     0.15E+00   26.0     0.00000180     -5912.7138438912 -6.17E-06
    25 OT DIIS     0.15E+00   26.4     0.00000238     -5912.7138474519 -3.56E-06
    26 OT DIIS     0.15E+00   26.6     0.00000177     -5912.7138500237 -2.57E-06
    27 OT DIIS     0.15E+00   26.9     0.00000133     -5912.7138540448 -4.02E-06
    28 OT DIIS     0.15E+00   26.9     0.00000138     -5912.7138571515 -3.11E-06
    29 OT DIIS     0.15E+00   25.9     0.00000163     -5912.7138588778 -1.73E-06
    30 OT DIIS     0.15E+00   26.3     0.00000119     -5912.7138612370 -2.36E-06

  Leaving inner SCF loop after reaching    30 steps.


  Electronic density on regular grids:      -3468.0000000020       -0.0000000020
  Core density on regular grids:             3467.9999999952       -0.0000000048
  Total charge density on r-space grids:       -0.0000000067
  Total charge density g-space grids:          -0.0000000058

  Overlap energy of the core charge distribution:               0.00000032726310
  Self energy of the core charge distribution:             -13952.81139369569428
  Core Hamiltonian energy:                                   3143.38972596351596
  Hartree energy:                                            6202.79253902035543
  Exchange-correlation energy:                              -1303.62337268879946
  Dispersion energy:                                           -2.46136016363825

  Total energy:                                             -5912.71386123699631

  outer SCF iter =    1 RMS gradient =   0.12E-05 energy =      -5912.7138612370

  ----------------------------------- OT ---------------------------------------
  Minimizer      : DIIS                : direct inversion
                                         in the iterative subspace
                                         using   8 DIIS vectors
                                         safer DIIS on
  Preconditioner : FULL_KINETIC        : inversion of T + eS
  Precond_solver : DEFAULT
  stepsize       :    0.15000000                  energy_gap     :    0.00010000
  eps_taylor     :   0.10000E-15                  max_taylor     :             4
  ----------------------------------- OT ---------------------------------------

  Step     Update method      Time    Convergence         Total energy    Change
  ------------------------------------------------------------------------------
     1 OT DIIS     0.15E+00   59.4     0.00000128     -5912.7138633697 -2.13E-06
     2 OT DIIS     0.15E+00   24.4     0.00000602     -5912.7138608027  2.57E-06
     3 OT DIIS     0.15E+00   24.1     0.00000110     -5912.7138651830 -4.38E-06
     4 OT DIIS     0.15E+00   24.7     0.00000089     -5912.7138657312 -5.48E-07

  *** SCF run converged in     4 steps ***


  Electronic density on regular grids:      -3468.0000000011       -0.0000000011
  Core density on regular grids:             3467.9999999952       -0.0000000048
  Total charge density on r-space grids:       -0.0000000059
  Total charge density g-space grids:          -0.0000000049

  Overlap energy of the core charge distribution:               0.00000032726310
  Self energy of the core charge distribution:             -13952.81139369569428
  Core Hamiltonian energy:                                   3143.38964452913751
  Hartree energy:                                            6202.79260158578836
  Exchange-correlation energy:                              -1303.62335831404062
  Dispersion energy:                                           -2.46136016363825

  Total energy:                                             -5912.71386573118343

  outer SCF iter =    2 RMS gradient =   0.89E-06 energy =      -5912.7138657312
  outer SCF loop converged in   2 iterations or   34 steps


 ENERGY| Total FORCE_EVAL ( QS ) energy (a.u.):            -5912.713868309551799


 --------  Informations at step =     8 ------------
  Optimization Method        =                 BFGS
  Total Energy               =     -5912.7138683096
  Real energy change         =        -0.0004091186
  Predicted change in energy =        -0.0002736041
  Scaling factor             =         0.0000000000
  Step size                  =         0.0526595366
  Trust radius               =         0.4724315332
  Decrease in energy         =                  YES
  Used time                  =              922.457

  Convergence check :
  Max. step size             =         0.0526595366
  Conv. limit for step size  =         0.0030000000
  Convergence in step size   =                   NO
  RMS step size              =         0.0038184409
  Conv. limit for RMS step   =         0.0015000000
  Convergence in RMS step    =                   NO
  Max. gradient              =         0.0023348061
  Conv. limit for gradients  =         0.0004500000
  Conv. for gradients        =                   NO
  RMS gradient               =         0.0001676755
  Conv. limit for RMS grad.  =         0.0003000000
  Conv. in RMS gradients     =                  YES
 ---------------------------------------------------

 --------------------------
 OPTIMIZATION STEP:      9
 --------------------------

 Number of electrons:                                                       3468
 Number of occupied orbitals:                                               1734
 Number of molecular orbitals:                                              1734

 Number of orbital functions:                                               7512
 Number of independent orbital functions:                                   7512

 Extrapolation method: ASPC


 SCF WAVEFUNCTION OPTIMIZATION

  ----------------------------------- OT ---------------------------------------
  Minimizer      : DIIS                : direct inversion
                                         in the iterative subspace
                                         using   8 DIIS vectors
                                         safer DIIS on
  Preconditioner : FULL_KINETIC        : inversion of T + eS
  Precond_solver : DEFAULT
  stepsize       :    0.15000000                  energy_gap     :    0.00010000
  eps_taylor     :   0.10000E-15                  max_taylor     :             4
  ----------------------------------- OT ---------------------------------------

  Step     Update method      Time    Convergence         Total energy    Change
  ------------------------------------------------------------------------------
     1 OT DIIS     0.15E+00   26.7     0.00005314     -5912.7008646481 -5.91E+03
     2 OT DIIS     0.15E+00   26.0     0.00004345     -5912.7055219938 -4.66E-03
     3 OT DIIS     0.15E+00   26.3     0.00014603     -5912.7059812208 -4.59E-04
     4 OT DIIS     0.15E+00   26.7     0.00003495     -5912.7107390592 -4.76E-03
     5 OT DIIS     0.15E+00   24.9     0.00003030     -5912.7117562628 -1.02E-03
     6 OT DIIS     0.15E+00   25.2     0.00004474     -5912.7125888794 -8.33E-04
     7 OT DIIS     0.15E+00   26.5     0.00002701     -5912.7130834794 -4.95E-04
     8 OT DIIS     0.15E+00   27.0     0.00001231     -5912.7134084461 -3.25E-04
     9 OT DIIS     0.15E+00   26.7     0.00000755     -5912.7136859189 -2.77E-04
    10 OT DIIS     0.15E+00   27.1     0.00000779     -5912.7138127541 -1.27E-04
    11 OT DIIS     0.15E+00   27.0     0.00001387     -5912.7138378176 -2.51E-05
    12 OT DIIS     0.15E+00   27.2     0.00000766     -5912.7139096275 -7.18E-05
    13 OT DIIS     0.15E+00   26.9     0.00001065     -5912.7139314869 -2.19E-05
    14 OT DIIS     0.15E+00   27.6     0.00000477     -5912.7139688633 -3.74E-05
    15 OT DIIS     0.15E+00   26.8     0.00000537     -5912.7140041670 -3.53E-05
    16 OT DIIS     0.15E+00   26.5     0.00000589     -5912.7140185767 -1.44E-05
    17 OT DIIS     0.15E+00   25.5     0.00000319     -5912.7140341184 -1.55E-05
    18 OT DIIS     0.15E+00   25.7     0.00000253     -5912.7140528721 -1.88E-05
    19 OT DIIS     0.15E+00   25.7     0.00000403     -5912.7140625329 -9.66E-06
    20 OT DIIS     0.15E+00   25.1     0.00000248     -5912.7140687283 -6.20E-06
    21 OT DIIS     0.15E+00   25.2     0.00000257     -5912.7140766538 -7.93E-06
    22 OT DIIS     0.15E+00   26.0     0.00000290     -5912.7140790693 -2.42E-06
    23 OT DIIS     0.15E+00   25.4     0.00000218     -5912.7140822509 -3.18E-06
    24 OT DIIS     0.15E+00   25.6     0.00000205     -5912.7140848074 -2.56E-06
    25 OT DIIS     0.15E+00   23.0     0.00000150     -5912.7140877965 -2.99E-06
    26 OT DIIS     0.15E+00   25.1     0.00000167     -5912.7140895414 -1.74E-06
    27 OT DIIS     0.15E+00   23.7     0.00000144     -5912.7140914225 -1.88E-06
    28 OT DIIS     0.15E+00   24.9     0.00000109     -5912.7140934647 -2.04E-06
    29 OT DIIS     0.15E+00   24.4     0.00000094     -5912.7140953017 -1.84E-06

  *** SCF run converged in    29 steps ***


  Electronic density on regular grids:      -3468.0000000014       -0.0000000014
  Core density on regular grids:             3467.9999999952       -0.0000000048
  Total charge density on r-space grids:       -0.0000000061
  Total charge density g-space grids:          -0.0000000052

  Overlap energy of the core charge distribution:               0.00000032688260
  Self energy of the core charge distribution:             -13952.81139369569428
  Core Hamiltonian energy:                                   3143.35515535559080
  Hartree energy:                                            6202.81517741260086
  Exchange-correlation energy:                              -1303.61155765075205
  Dispersion energy:                                           -2.46147705035802

  Total energy:                                             -5912.71409530172878

  outer SCF iter =    1 RMS gradient =   0.94E-06 energy =      -5912.7140953017
  outer SCF loop converged in   1 iterations or   29 steps


 ENERGY| Total FORCE_EVAL ( QS ) energy (a.u.):            -5912.714097172800393


 --------  Informations at step =     9 ------------
  Optimization Method        =                 BFGS
  Total Energy               =     -5912.7140971728
  Real energy change         =        -0.0002288632
  Predicted change in energy =        -0.0002932283
  Scaling factor             =         0.0000000000
  Step size                  =         0.0587323471
  Trust radius               =         0.4724315332
  Decrease in energy         =                  YES
  Used time                  =              795.824

  Convergence check :
  Max. step size             =         0.0587323471
  Conv. limit for step size  =         0.0030000000
  Convergence in step size   =                   NO
  RMS step size              =         0.0043700129
  Conv. limit for RMS step   =         0.0015000000
  Convergence in RMS step    =                   NO
  Max. gradient              =         0.0019559692
  Conv. limit for gradients  =         0.0004500000
  Conv. for gradients        =                   NO
  RMS gradient               =         0.0000764624
  Conv. limit for RMS grad.  =         0.0003000000
  Conv. in RMS gradients     =                  YES
 ---------------------------------------------------

 --------------------------
 OPTIMIZATION STEP:     10
 --------------------------

 Number of electrons:                                                       3468
 Number of occupied orbitals:                                               1734
 Number of molecular orbitals:                                              1734

[...]
    21 OT DIIS     0.15E+00   16.2     0.00000109     -5912.8836134051 -4.47E-06
    22 OT DIIS     0.15E+00   15.4     0.00000092     -5912.8836158854 -2.48E-06

  *** SCF run converged in    22 steps ***


  Electronic density on regular grids:      -3468.0000000015       -0.0000000015
  Core density on regular grids:             3467.9999999952       -0.0000000048
  Total charge density on r-space grids:       -0.0000000062
  Total charge density g-space grids:          -0.0000000054

  Overlap energy of the core charge distribution:               0.00000032801747
  Self energy of the core charge distribution:             -13952.81139369569428
  Core Hamiltonian energy:                                   3143.47888980916832
  Hartree energy:                                            6202.67351297621281
  Exchange-correlation energy:                              -1303.75826535630449
  Dispersion energy:                                           -2.46635994675677

  Total energy:                                             -5912.88361588535554

  outer SCF iter =    1 RMS gradient =   0.92E-06 energy =      -5912.8836158854
  outer SCF loop converged in   1 iterations or   22 steps


 ENERGY| Total FORCE_EVAL ( QS ) energy (a.u.):            -5912.883615885355539


 -------------------------------------------------------------------------------
 -                                                                             -
 -                                DBCSR STATISTICS                             -
 -                                                                             -
 -------------------------------------------------------------------------------
 COUNTER                                    TOTAL       BLAS       SMM       ACC
 flops     6 x     6 x     6             49121856       0.0%    100.0%      0.0%
 flops     6 x    32 x    32            432635904       0.0%    100.0%      0.0%
 flops     6 x     6 x   416            992609280       0.0%    100.0%      0.0%
 flops     6 x     6 x   422           1006925760       0.0%    100.0%      0.0%
 flops     6 x     6 x   448           2137927680       0.0%    100.0%      0.0%
 flops     6 x     6 x    13          10580351184       0.0%    100.0%      0.0%
 flops    13 x     6 x     6          10668230352       0.0%    100.0%      0.0%
 flops     6 x    32 x     6          14065975296       0.0%    100.0%      0.0%
 flops    13 x    32 x    32         134982402048       0.0%    100.0%      0.0%
 flops     6 x    13 x   416         171092203776       0.0%    100.0%      0.0%
 flops    13 x     6 x   416         172773853824       0.0%    100.0%      0.0%
 flops     6 x    13 x   422         173559879792       0.0%    100.0%      0.0%
 flops    13 x     6 x   422         175265784408       0.0%    100.0%      0.0%
 flops     6 x    13 x   448         368506285056       0.0%    100.0%      0.0%
 flops    13 x     6 x   448         372128300544       0.0%    100.0%      0.0%
 flops   416 x   416 x   416        2664541847552     100.0%      0.0%      0.0%
 flops   416 x   416 x   422        2702972739584     100.0%      0.0%      0.0%
 flops   416 x   422 x   416        2702972739584     100.0%      0.0%      0.0%
 flops   422 x   416 x   416        2702972739584     100.0%      0.0%      0.0%
 flops    13 x     6 x    13        2732655024840       0.0%    100.0%      0.0%
 flops   416 x   422 x   422        2741957923328     100.0%      0.0%      0.0%
 flops   422 x   416 x   422        2741957923328     100.0%      0.0%      0.0%
 flops   422 x   422 x   416        2741957923328     100.0%      0.0%      0.0%
 flops   422 x   422 x   422        2781505393376     100.0%      0.0%      0.0%
 flops    13 x    32 x     6        3047141140992       0.0%    100.0%      0.0%
 flops     6 x    32 x    13        3047141140992       0.0%    100.0%      0.0%
 flops   416 x   416 x   448        5739013210112     100.0%      0.0%      0.0%
 flops   416 x   448 x   416        5739013210112     100.0%      0.0%      0.0%
 flops   448 x   416 x   416        5739013210112     100.0%      0.0%      0.0%
 flops   416 x   422 x   448        5821787439104     100.0%      0.0%      0.0%
 flops   416 x   448 x   422        5821787439104     100.0%      0.0%      0.0%
 flops   422 x   416 x   448        5821787439104     100.0%      0.0%      0.0%
 flops   422 x   448 x   416        5821787439104     100.0%      0.0%      0.0%
 flops   448 x   416 x   422        5821787439104     100.0%      0.0%      0.0%
 flops   448 x   422 x   416        5821787439104     100.0%      0.0%      0.0%
 flops   422 x   422 x   448        5905755527168     100.0%      0.0%      0.0%
 flops   422 x   448 x   422        5905755527168     100.0%      0.0%      0.0%
 flops   448 x   422 x   422        5905755527168     100.0%      0.0%      0.0%
 flops   448 x   448 x   416       12360951529472     100.0%      0.0%      0.0%
 flops   416 x   448 x   448       12360951529472     100.0%      0.0%      0.0%
 flops   448 x   416 x   448       12360951529472     100.0%      0.0%      0.0%
 flops   448 x   448 x   422       12539234484224     100.0%      0.0%      0.0%
 flops   422 x   448 x   448       12539234484224     100.0%      0.0%      0.0%
 flops   448 x   422 x   448       12539234484224     100.0%      0.0%      0.0%
 flops   448 x   448 x   448       26623587909632     100.0%      0.0%      0.0%
 flops   416 x   416 x  1878       31452119482368     100.0%      0.0%      0.0%
 flops   416 x   422 x  1878       31905755821056     100.0%      0.0%      0.0%
 flops   422 x   416 x  1878       31905755821056     100.0%      0.0%      0.0%
 flops   422 x   422 x  1878       32365934991552     100.0%      0.0%      0.0%
 flops  1878 x   416 x   416       38997300166656     100.0%      0.0%      0.0%
 flops  1878 x   416 x   422       39559761226752     100.0%      0.0%      0.0%
 flops  1878 x   422 x   416       39559761226752     100.0%      0.0%      0.0%
 flops  1878 x   422 x   422       40130334705984     100.0%      0.0%      0.0%
 flops    13 x    13 x   416       44564234277888       0.0%    100.0%      0.0%
 flops    13 x    13 x   422       45206987656896       0.0%    100.0%      0.0%
 flops   416 x   448 x  1878       67743026577408     100.0%      0.0%      0.0%
 flops   448 x   416 x  1878       67743026577408     100.0%      0.0%      0.0%
 flops   422 x   448 x  1878       68720089460736     100.0%      0.0%      0.0%
 flops   448 x   422 x  1878       68720089460736     100.0%      0.0%      0.0%
 flops  1878 x   448 x   416       83994184974336     100.0%      0.0%      0.0%
 flops  1878 x   416 x   448       83994184974336     100.0%      0.0%      0.0%
 flops  1878 x   448 x   422       85205639565312     100.0%      0.0%      0.0%
 flops  1878 x   422 x   448       85205639565312     100.0%      0.0%      0.0%
 flops    13 x    13 x   448       95984504598528       0.0%    100.0%      0.0%
 flops   448 x   448 x  1878      145908057243648     100.0%      0.0%      0.0%
 flops  1878 x   416 x  1878      151554212020224     100.0%      0.0%      0.0%
 flops  1878 x   422 x  1878      153740090078208     100.0%      0.0%      0.0%
 flops  1878 x   448 x   448      180910552252416     100.0%      0.0%      0.0%
 flops  1878 x   448 x  1878      326424456658944     100.0%      0.0%      0.0%
 flops    13 x    32 x    13      787004647153920       0.0%    100.0%      0.0%
 flops inhomo. stacks                           0       0.0%      0.0%      0.0%
 flops total                         3.031906E+15      67.6%     32.4%      0.0%
 flops max/rank                    201.059129E+12      66.6%     33.4%      0.0%
 matmuls inhomo. stacks                         0       0.0%      0.0%      0.0%
 matmuls total                        76657512494       0.0%    100.0%      0.0%
 number of processed stacks              82396613       3.8%     96.2%      0.0%
 average stack size                                     1.0     967.0       0.0
 marketing flops                     4.094652E+15
 -------------------------------------------------------------------------------
 # multiplications                          59536
 max memory usage/rank               2.021057E+09
 # max total images/rank                        1
 # max 3D layers                                1
 # MPI messages exchanged                 5715456
 MPI messages size (bytes):
  total size                        31.219354E+12
  min size                           0.000000E+00
  max size                          28.215072E+06
  average size                       5.462268E+06
 MPI breakdown and total messages size (bytes):
             size <=      128               21516                        0
       128 < size <=     8192                   0                        0
      8192 < size <=    32768                   0                        0
     32768 < size <=   131072                1956                216458784
    131072 < size <=  4194304             2496528            3753225271584
   4194304 < size <= 16777216             2913324           20854664791296
  16777216 < size                          282132            6618414602448
 -------------------------------------------------------------------------------

 MEMORY| Estimated peak process memory [MiB]                                1928

 -------------------------------------------------------------------------------
 -                                                                             -
 -                         MESSAGE PASSING PERFORMANCE                         -
 -                                                                             -
 -------------------------------------------------------------------------------

 ROUTINE             CALLS      AVE VOLUME [Bytes]
 MP_Group             1877
 MP_Bcast            20082                  27728.
 MP_Allreduce       375979                    235.
 MP_Sync                 4
 MP_Alltoall        257534               36229642.
 MP_SendRecv          7440                  25743.
 MP_ISendRecv       191370                 730080.
 MP_Wait           3192175
 MP_ISend          1055980                2348604.
 MP_IRecv          1055980                2353812.
 MP_Recv             16983                1377280.
 MP_Memory         2608340
 -------------------------------------------------------------------------------


 -------------------------------------------------------------------------------
 -                                                                             -
 -                           R E F E R E N C E S                               -
 -                                                                             -
 -------------------------------------------------------------------------------
 
 CP2K version 7.0 (Development Version), the CP2K developers group (2018).
 CP2K is freely available from https://www.cp2k.org/ .

 Schuett, Ole; Messmer, Peter; Hutter, Juerg; VandeVondele, Joost. 
 Electronic Structure Calculations on Graphics Processing Units, John Wiley & Sons, Ltd, 173-190 (2016). 
 GPU-Accelerated Sparse Matrix-Matrix Multiplication for Linear Scaling Density Functional Theory.
 http://dx.doi.org/10.1002/9781118670712.ch8


 Borstnik, U; VandeVondele, J; Weber, V; Hutter, J. 
 PARALLEL COMPUTING, 40 (5-6), 47-58 (2014). 
 Sparse matrix multiplication: The distributed block-compressed sparse
 row library.
 http://dx.doi.org/10.1016/j.parco.2014.03.012


 Hutter, J; Iannuzzi, M; Schiffmann, F; VandeVondele, J. 
 WILEY INTERDISCIPLINARY REVIEWS-COMPUTATIONAL MOLECULAR SCIENCE, 4 (1), 15-25 (2014). 
 CP2K: atomistic simulations of condensed matter systems.
 http://dx.doi.org/10.1002/wcms.1159


 Grimme, S; Ehrlich, S; Goerigk, L. 
 JOURNAL OF COMPUTATIONAL CHEMISTRY, 32, 1456 (2011). 
 Effect of the damping function in dispersion corrected density functional theory.
 http://dx.doi.org/10.1002/jcc.21759


 Grimme, S; Antony, J; Ehrlich, S; Krieg, H. 
 JOURNAL OF CHEMICAL PHYSICS, 132 (15), 154104 (2010). 
 A consistent and accurate ab initio parametrization of density
 functional dispersion correction (DFT-D) for the 94 elements H-Pu.
 http://dx.doi.org/10.1063/1.3382344


 VandeVondele, J; Hutter, J. 
 JOURNAL OF CHEMICAL PHYSICS, 127 (11), 114105 (2007). 
 Gaussian basis sets for accurate calculations on molecular systems in
 gas and condensed phases.
 http://dx.doi.org/10.1063/1.2770708


 Krack, M. 
 THEORETICAL CHEMISTRY ACCOUNTS, 114 (1-3), 145-152 (2005). 
 Pseudopotentials for H to Kr optimized for gradient-corrected
 exchange-correlation functionals.
 http://dx.doi.org/10.1007/s00214-005-0655-y


 VandeVondele, J; Krack, M; Mohamed, F; Parrinello, M; Chassaing, T;
 Hutter, J. COMPUTER PHYSICS COMMUNICATIONS, 167 (2), 103-128 (2005). 
 QUICKSTEP: Fast and accurate density functional calculations using a
 mixed Gaussian and plane waves approach.
 http://dx.doi.org/10.1016/j.cpc.2004.12.014


 Frigo, M; Johnson, SG. 
 PROCEEDINGS OF THE IEEE, 93 (2), 216-231 (2005). 
 The design and implementation of FFTW3.
 http://dx.doi.org/10.1109/JPROC.2004.840301


 Kolafa, J. 
 JOURNAL OF COMPUTATIONAL CHEMISTRY, 25 (3), 335-342 (2004). 
 Time-reversible always stable predictor-corrector method for molecular dynamics of polarizable molecules.
 http://dx.doi.org/10.1002/jcc.10385


 VandeVondele, J; Hutter, J. 
 JOURNAL OF CHEMICAL PHYSICS, 118 (10), 4365-4369 (2003). 
 An efficient orbital transformation method for electronic structure
 calculations.
 http://dx.doi.org/10.1063/1.1543154


 Hartwigsen, C; Goedecker, S; Hutter, J. 
 PHYSICAL REVIEW B, 58 (7), 3641-3662 (1998). 
 Relativistic separable dual-space Gaussian pseudopotentials from H to Rn.
 http://dx.doi.org/10.1103/PhysRevB.58.3641


 Lippert, G; Hutter, J; Parrinello, M. 
 MOLECULAR PHYSICS, 92 (3), 477-487 (1997). 
 A hybrid Gaussian and plane wave density functional scheme.
 http://dx.doi.org/10.1080/002689797170220


 Perdew, JP; Burke, K; Ernzerhof, M. 
 PHYSICAL REVIEW LETTERS, 77 (18), 3865-3868 (1996). 
 Generalized gradient approximation made simple.
 http://dx.doi.org/10.1103/PhysRevLett.77.3865


 Goedecker, S; Teter, M; Hutter, J. 
 PHYSICAL REVIEW B, 54 (3), 1703-1710 (1996). 
 Separable dual-space Gaussian pseudopotentials.
 http://dx.doi.org/10.1103/PhysRevB.54.1703


 -------------------------------------------------------------------------------
 -                                                                             -
 -                                T I M I N G                                  -
 -                                                                             -
 -------------------------------------------------------------------------------
 SUBROUTINE                       CALLS  ASD         SELF TIME        TOTAL TIME
                                MAXIMUM       AVERAGE  MAXIMUM  AVERAGE  MAXIMUM
 CP2K                                 1  1.0     0.05     0.05 69207.77 69208.54
 cp_geo_opt                           1  2.0     0.00     0.00 69204.91 69205.68
 geoopt_bfgs                          1  3.0     0.12     0.15 69204.91 69205.68
 cp_eval_at                         125  4.0     0.03     0.04 69129.56 69130.34
 qs_forces                          124  5.0     0.04     0.04 68652.97 68653.74
 qs_energies                        125  6.0     0.02     0.02 67095.34 67097.78
 scf_env_do_scf                     125  7.0     0.02     0.04 65494.49 65494.79
 scf_env_do_scf_inner_loop         3065  8.0     0.19     0.43 62541.71 62673.42
 rebuild_ks_matrix                 3189  9.9     0.05     0.06 41481.08 41576.51
 qs_ks_build_kohn_sham_matrix      3189 10.9     0.75     0.82 41481.03 41576.47
 qs_ks_update_qs_env               3228  9.0     0.08     0.10 39834.75 39926.11
 pw_transfer                      60721 13.5    10.00    11.04 33156.35 33490.15
 fft_wrap_pw1pw2                  54343 14.6     0.91     0.96 32877.92 33211.45
 fft_wrap_pw1pw2_150              35206 15.7  2208.20  2764.92 31567.37 32056.15
 qs_vxc_create                     3189 11.9     0.12     0.13 25595.75 25810.01
 xc_vxc_pw_create                  3189 12.9   274.00   319.48 25595.63 25809.90
 fft3d_ps                         54343 16.6 10970.47 12631.86 24825.14 25631.35
 dbcsr_multiply_generic           59536 14.0     6.04     6.40 13173.04 13304.93
 qs_rho_update_rho                 3190  9.0     0.05     0.06 13119.55 13185.86
 calculate_rho_elec                3190 10.0  4572.62  4867.95 13119.50 13185.82
 xc_rho_set_and_dset_create        3189 13.9    99.77   107.47 12180.26 12284.54
 qs_scf_new_mos                    3065  9.0     0.05     0.05 12104.80 12250.42
 qs_scf_loop_do_ot                 3065 10.0     0.04     0.04 12104.76 12250.38
 mp_alltoall_z22v                 54343 18.6  8491.15 11407.70  8491.15 11407.70
 ot_scf_mini                       3065 11.0     0.26     0.28 11093.03 11232.81
 multiply_cannon                  59536 15.0    14.67    16.00 10057.51 10463.94
 sum_up_and_integrate              3189 11.9    69.25    84.22 10215.46 10220.48
 integrate_v_rspace                3189 12.9  4805.84  5017.66 10146.20 10161.12
 x_to_yz                          28702 18.1  3025.03  4012.80  7468.46  8548.47
 multiply_cannon_multrec         238144 16.0  7775.06  8182.83  7776.41  8184.32
 density_rs2pw                     3190 11.0     0.22     0.24  7741.02  8083.43
 ot_mini                           3065 12.0     0.03     0.04  7464.23  7630.11
 yz_to_x                          25641 17.1  2337.10  2627.50  6384.82  7590.64
 qs_ot_get_derivative              3065 13.0     0.06     0.07  4737.80  4880.34
 potential_pw2rs                   3189 13.9     5.47     7.18  4741.50  4755.19
 pw_gather_p                      25641 16.1  3029.71  3331.40  3029.71  3331.40
 qs_ot_get_derivative_taylor       2960 14.0     0.19     0.22  3036.77  3175.67
 pw_scatter_p                     28702 17.1  2745.89  3025.06  2745.89  3025.06
 init_scf_loop                      163  8.0     0.01     0.01  2814.45  2814.67
 rs_pw_transfer                   25765 13.4     0.68     0.74  2641.80  2787.85
 ot_diis_step                      3065 13.0     0.29     0.32  2682.11  2682.14
 mp_waitall_1                   3088119 17.6  2193.58  2534.56  2193.58  2534.56
 apply_preconditioner_dbcsr        3228 14.0     0.01     0.01  2248.08  2329.48
 apply_single                      3228 15.0     0.02     0.02  2248.07  2329.47
 xc_functional_eval                3189 14.9     0.06     0.06  2030.07  2106.77
 pbe_lda_eval                      3189 15.9  2030.01  2106.71  2030.01  2106.71
 mp_sum_d                         67793 14.3  1432.28  2056.83  1432.28  2056.83
 make_m2s                        119072 15.0     4.06     4.33  1924.42  2007.74
 pw_derive                        19134 14.4  1483.36  1776.81  1483.36  1776.81
 qs_ks_update_qs_env_forces         124  6.0     0.00     0.00  1690.16  1693.84
 make_images                     119072 16.0    20.38    21.17  1461.10  1524.35
 -------------------------------------------------------------------------------

 The number of warnings for this run is : 0
 
 -------------------------------------------------------------------------------
  **** **** ******  **  PROGRAM ENDED AT                 2023-06-07 08:49:11.897
 ***** ** ***  *** **   PROGRAM RAN ON                                sebnode127
 **    ****   ******    PROGRAM RAN BY                                    luehrs
 ***** **    ** ** **   PROGRAM PROCESS ID                               1494833
  **** **  *******  **  PROGRAM STOPPED IN /home/luehrs/PhD/Li-S_paper/Li-S-Surf
                                           ace_Reaction/Second_Lithiation_of_S8_
                                           Surface/Second_Lithiation_around_S8/S
                                           econd_Lithiation_L2/Second_Lithiation
                                           _orthogonal/3.S8_o
