 DBCSR| Multiplication driver                                               XSMM
 DBCSR| Multrec recursion limit                                              512
 DBCSR| Multiplication stack size                                           1000
 DBCSR| Maximum elements for images                                    UNLIMITED
 DBCSR| Multiplicative factor virtual images                                   1
 DBCSR| Multiplication size stacks                                             3
 DBCSR| Number of 3D layers                                               SINGLE
 DBCSR| Use MPI memory allocation                                              T
 DBCSR| Use RMA algorithm                                                      F
 DBCSR| Use Communication thread                                               T
 DBCSR| Communication thread load                                             87


  **** **** ******  **  PROGRAM STARTED AT               2023-06-05 11:27:51.210
 ***** ** ***  *** **   PROGRAM STARTED ON                            sebnode120
 **    ****   ******    PROGRAM STARTED BY                                luehrs
 ***** **    ** ** **   PROGRAM PROCESS ID                               1814525
  **** **  *******  **  PROGRAM STARTED IN /home/luehrs/PhD/Li-S_paper/Li-S-Surf
                                           ace_Reaction/Second_Lithiation_of_S8_
                                           Surface/Second_Lithiation_around_S8/S
                                           econd_Lithiation_L3/Second_Lithiation
                                           _parallel/1.S8_p

 CP2K| version string:                    CP2K version 7.0 (Development Version)
 CP2K| source code revision number:                                             
 CP2K| cp2kflags: libint fftw3 libxc parallel mpi3 scalapack xsmm libderiv_max_a
 CP2K|            m1=8 libint_max_am=9 max_contr=4
 CP2K| is freely available from                            https://www.cp2k.org/
 CP2K| Program compiled at                         Sun Jun 24 14:37:16 CEST 2018
 CP2K| Program compiled on                                            sebstorage
 CP2K| Program compiled for                                Linux-x86-64-gfortran
 CP2K| Data directory path    /home/brehm/Software_Batchnode/2018/Source/cp2k_18
 CP2K| Input file name                                                input1.inp

 GLOBAL| Force Environment number                                              1
 GLOBAL| Basis set file name                                      ./BASIS_MOLOPT
 GLOBAL| Potential file name                                    ./GTH_POTENTIALS
 GLOBAL| MM Potential file name                                     MM_POTENTIAL
 GLOBAL| Coordinate file name             ./Second_lithiation_S8_1.p_relaxed.xyz
 GLOBAL| Method name                                                        CP2K
 GLOBAL| Project name                                                   Li_react
 GLOBAL| Preferred FFT library                                             FFTW3
 GLOBAL| Preferred diagonalization lib.                                       SL
 GLOBAL| Run type                                                        GEO_OPT
 GLOBAL| All-to-all communication in single precision                          F
 GLOBAL| FFTs using library dependent lengths                                  F
 GLOBAL| Global print level                                                  LOW
 GLOBAL| Total number of message passing processes                            16
 GLOBAL| Number of threads for this process                                    1
 GLOBAL| This output is from process                                           0
 GLOBAL| CPU model name :  Intel(R) Xeon(R) Gold 6144 CPU @ 3.50GHz

 MEMORY| system memory details [Kb]
 MEMORY|                        rank 0           min           max       average
 MEMORY| MemTotal             65601912      65601912      65601912      65601912
 MEMORY| MemFree              54063020      54063020      54063020      54063020
 MEMORY| Buffers                230116        230116        230116        230116
 MEMORY| Cached                9186640       9186640       9186640       9186640
 MEMORY| Slab                   516408        516408        516408        516408
 MEMORY| SReclaimable           330372        330372        330372        330372
 MEMORY| MemLikelyFree        63810148      63810148      63810148      63810148


 GENERATE|  Preliminary Number of Bonds generated:                             0
 GENERATE|  Achieved consistency in connectivity generation.

 *******************************************************************************
 *******************************************************************************
 **                                                                           **
 **     #####                         ##              ##                      **
 **    ##   ##            ##          ##              ##                      **
 **   ##     ##                       ##            ######                    **
 **   ##     ##  ##   ##  ##   #####  ##  ##   ####   ##    #####    #####    **
 **   ##     ##  ##   ##  ##  ##      ## ##   ##      ##   ##   ##  ##   ##   **
 **   ##  ## ##  ##   ##  ##  ##      ####     ###    ##   ######   ######    **
 **    ##  ###   ##   ##  ##  ##      ## ##      ##   ##   ##       ##        **
 **     #######   #####   ##   #####  ##  ##  ####    ##    #####   ##        **
 **           ##                                                    ##        **
 **                                                                           **
 **                                                ... make the atoms dance   **
 **                                                                           **
 **            Copyright (C) by CP2K developers group (2000 - 2018)           **
 **                                                                           **
 *******************************************************************************


 TOTAL NUMBERS AND MAXIMUM NUMBERS

  Total number of            - Atomic kinds:                                   2
                             - Atoms:                                        580
                             - Shell sets:                                   580
                             - Shells:                                      2896
                             - Primitive Cartesian functions:               3476
                             - Cartesian basis functions:                   8088
                             - Spherical basis functions:                   7512

  Maximum angular momentum of- Orbital basis functions:                        2
                             - Local part of the GTH pseudopotential:          6
                             - Non-local part of the GTH pseudopotential:      2


 SCF PARAMETERS         Density guess:                                   RESTART
                        --------------------------------------------------------
                        max_scf:                                              30
                        max_scf_history:                                       0
                        max_diis:                                              4
                        --------------------------------------------------------
                        eps_scf:                                        1.00E-06
                        eps_scf_history:                                0.00E+00
                        eps_diis:                                       1.00E-01
                        eps_eigval:                                     1.00E-05
                        --------------------------------------------------------
                        level_shift [a.u.]:                                 0.00
                        --------------------------------------------------------
                        Outer loop SCF in use 
                        No variables optimised in outer loop
                        eps_scf                                         1.00E-06
                        max_scf                                               25
                        DIIS optimization
                        DIIS buffer length                                     3
                        step_size                                       5.00E-01

 BFGS| Use rational function optimization for step estimation:                NO
 BFGS| Use model Hessian for initial guess:                                  YES
 BFGS| Restart Hessian:                                                       NO
 BFGS| Trust radius:                                                       0.472

 *******************************************************************************
 ***                     STARTING GEOMETRY OPTIMIZATION                      ***
 ***                                   BFGS                                  ***
 *******************************************************************************

 Number of electrons:                                                       3468
 Number of occupied orbitals:                                               1734
 Number of molecular orbitals:                                              1734

 Number of orbital functions:                                               7512
 Number of independent orbital functions:                                   7512

 Extrapolation method: initial_guess

 *** WARNING in qs_initial_guess.F:263 :: User requested to restart the   ***
 *** wavefunction from the file named: Li_react-RESTART.wfn. This file    ***
 *** does not exist. Please check the existence of the file or change     ***
 *** properly the value of the keyword WFN_RESTART_FILE_NAME. Calculation ***
 *** continues using ATOMIC GUESS.                                        ***



 SCF WAVEFUNCTION OPTIMIZATION

  ----------------------------------- OT ---------------------------------------
  Minimizer      : DIIS                : direct inversion
                                         in the iterative subspace
                                         using   8 DIIS vectors
                                         safer DIIS on
  Preconditioner : FULL_KINETIC        : inversion of T + eS
  Precond_solver : DEFAULT
  stepsize       :    0.15000000                  energy_gap     :    0.00010000
  eps_taylor     :   0.10000E-15                  max_taylor     :             4
  ----------------------------------- OT ---------------------------------------

  Step     Update method      Time    Convergence         Total energy    Change
  ------------------------------------------------------------------------------
     1 OT DIIS     0.15E+00   15.3     0.00631405     -5742.1814562685 -5.74E+03
     2 OT DIIS     0.15E+00   15.9     0.02310096     -5749.5154244760 -7.33E+00
     3 OT DIIS     0.15E+00   16.0     0.00669362     -5795.0793997857 -4.56E+01
     4 OT DIIS     0.15E+00   16.0     0.00627291     -5816.5634202463 -2.15E+01
     5 OT DIIS     0.15E+00   16.0     0.00534260     -5832.4985596507 -1.59E+01
     6 OT DIIS     0.15E+00   16.0     0.00416568     -5843.6021379517 -1.11E+01
     7 OT DIIS     0.15E+00   16.0     0.00258862     -5859.8004091107 -1.62E+01
     8 OT DIIS     0.15E+00   16.0     0.00258797     -5870.1454264261 -1.03E+01
     9 OT DIIS     0.15E+00   16.0     0.00193864     -5877.9271651172 -7.78E+00
    10 OT DIIS     0.15E+00   16.0     0.00188462     -5882.8856046739 -4.96E+00
    11 OT DIIS     0.15E+00   16.0     0.00144671     -5887.2202529755 -4.33E+00
    12 OT DIIS     0.15E+00   16.0     0.00178387     -5890.9157056717 -3.70E+00
    13 OT DIIS     0.15E+00   16.0     0.00117278     -5893.3880630184 -2.47E+00
    14 OT DIIS     0.15E+00   16.0     0.00103708     -5896.6862533256 -3.30E+00
    15 OT DIIS     0.15E+00   16.0     0.00097603     -5899.1647827897 -2.48E+00
    16 OT DIIS     0.15E+00   16.0     0.00083324     -5901.1600955948 -2.00E+00
    17 OT DIIS     0.15E+00   16.1     0.00082963     -5902.8599641196 -1.70E+00
    18 OT DIIS     0.15E+00   16.0     0.00068742     -5904.4011184113 -1.54E+00
    19 OT DIIS     0.15E+00   16.0     0.00079570     -5905.3461686984 -9.45E-01
    20 OT DIIS     0.15E+00   15.9     0.00059081     -5906.3446581491 -9.98E-01
    21 OT DIIS     0.15E+00   15.8     0.00054257     -5907.3056074526 -9.61E-01
    22 OT DIIS     0.15E+00   15.9     0.00053815     -5907.9445617231 -6.39E-01
    23 OT DIIS     0.15E+00   15.9     0.00046295     -5908.6051037886 -6.61E-01
    24 OT DIIS     0.15E+00   15.9     0.00043518     -5909.1649176643 -5.60E-01
    25 OT DIIS     0.15E+00   15.9     0.00037376     -5909.5293539009 -3.64E-01
    26 OT DIIS     0.15E+00   15.9     0.00038996     -5909.9644251526 -4.35E-01
    27 OT DIIS     0.15E+00   15.9     0.00035011     -5910.1596903994 -1.95E-01
    28 OT DIIS     0.15E+00   15.9     0.00036148     -5910.4334404605 -2.74E-01
    29 OT DIIS     0.15E+00   15.9     0.00029476     -5910.6201487756 -1.87E-01
    30 OT DIIS     0.15E+00   16.0     0.00028188     -5910.8678656181 -2.48E-01

  Leaving inner SCF loop after reaching    30 steps.


  Electronic density on regular grids:      -3468.0000000001       -0.0000000001
  Core density on regular grids:             3467.9999999952       -0.0000000048
  Total charge density on r-space grids:       -0.0000000049
  Total charge density g-space grids:          -0.0000000039

  Overlap energy of the core charge distribution:               0.00000032801789
  Self energy of the core charge distribution:             -13952.81139369569428
  Core Hamiltonian energy:                                   3145.95213796663393
  Hartree energy:                                            6201.99482419311244
  Exchange-correlation energy:                              -1303.53804215289256
  Dispersion energy:                                           -2.46539225726317

  Total energy:                                             -5910.86786561808640

  outer SCF iter =    1 RMS gradient =   0.28E-03 energy =      -5910.8678656181

  ----------------------------------- OT ---------------------------------------
  Minimizer      : DIIS                : direct inversion
                                         in the iterative subspace
                                         using   8 DIIS vectors
                                         safer DIIS on
  Preconditioner : FULL_KINETIC        : inversion of T + eS
  Precond_solver : DEFAULT
  stepsize       :    0.15000000                  energy_gap     :    0.00010000
  eps_taylor     :   0.10000E-15                  max_taylor     :             4
  ----------------------------------- OT ---------------------------------------

  Step     Update method      Time    Convergence         Total energy    Change
  ------------------------------------------------------------------------------
     1 OT DIIS     0.15E+00   34.7     0.00037142     -5911.0067100647 -1.39E-01
     2 OT DIIS     0.15E+00   15.6     0.00096456     -5911.0820367671 -7.53E-02
     3 OT DIIS     0.15E+00   15.7     0.00030773     -5911.2285480150 -1.47E-01
     4 OT DIIS     0.15E+00   16.0     0.00035740     -5911.3929982182 -1.64E-01
     5 OT DIIS     0.15E+00   15.9     0.00035830     -5911.5355479422 -1.43E-01
     6 OT DIIS     0.15E+00   15.9     0.00025444     -5911.6486035044 -1.13E-01
     7 OT DIIS     0.15E+00   16.0     0.00024167     -5911.7583690454 -1.10E-01
     8 OT DIIS     0.15E+00   16.0     0.00029789     -5911.9370825978 -1.79E-01
     9 OT DIIS     0.15E+00   16.0     0.00019766     -5912.0419742856 -1.05E-01
    10 OT DIIS     0.15E+00   16.0     0.00018923     -5912.1569011143 -1.15E-01
    11 OT DIIS     0.15E+00   15.9     0.00022815     -5912.2614390614 -1.05E-01
    12 OT DIIS     0.15E+00   16.0     0.00020960     -5912.2910848958 -2.96E-02
    13 OT DIIS     0.15E+00   16.0     0.00017340     -5912.3451234294 -5.40E-02
    14 OT DIIS     0.15E+00   16.0     0.00017076     -5912.4069077616 -6.18E-02
    15 OT DIIS     0.15E+00   16.0     0.00015060     -5912.4350788628 -2.82E-02
    16 OT DIIS     0.15E+00   16.0     0.00012184     -5912.4635184039 -2.84E-02
    17 OT DIIS     0.15E+00   16.0     0.00011627     -5912.4986560898 -3.51E-02
    18 OT DIIS     0.15E+00   16.0     0.00011478     -5912.5182708917 -1.96E-02
    19 OT DIIS     0.15E+00   16.0     0.00009782     -5912.5395876934 -2.13E-02
    20 OT DIIS     0.15E+00   16.0     0.00010259     -5912.5661411614 -2.66E-02
    21 OT DIIS     0.15E+00   15.9     0.00010864     -5912.5766051303 -1.05E-02
    22 OT DIIS     0.15E+00   15.9     0.00009486     -5912.5898409777 -1.32E-02
    23 OT DIIS     0.15E+00   15.9     0.00009303     -5912.6077857763 -1.79E-02
    24 OT DIIS     0.15E+00   15.8     0.00008746     -5912.6159837874 -8.20E-03
    25 OT DIIS     0.15E+00   15.9     0.00007957     -5912.6259289751 -9.95E-03
    26 OT DIIS     0.15E+00   15.8     0.00006994     -5912.6369636596 -1.10E-02
    27 OT DIIS     0.15E+00   15.8     0.00007323     -5912.6440452315 -7.08E-03
    28 OT DIIS     0.15E+00   15.8     0.00005879     -5912.6499796408 -5.93E-03
    29 OT DIIS     0.15E+00   15.9     0.00005906     -5912.6579664415 -7.99E-03
    30 OT DIIS     0.15E+00   15.9     0.00006363     -5912.6609412834 -2.97E-03

  Leaving inner SCF loop after reaching    30 steps.


  Electronic density on regular grids:      -3468.0000000002       -0.0000000002
  Core density on regular grids:             3467.9999999952       -0.0000000048
  Total charge density on r-space grids:       -0.0000000049
  Total charge density g-space grids:          -0.0000000039

  Overlap energy of the core charge distribution:               0.00000032801789
  Self energy of the core charge distribution:             -13952.81139369569428
  Core Hamiltonian energy:                                   3144.23620405142719
  Hartree energy:                                            6202.28369326439133
  Exchange-correlation energy:                              -1303.90405297430607
  Dispersion energy:                                           -2.46539225726317

  Total energy:                                             -5912.66094128342684

  outer SCF iter =    2 RMS gradient =   0.64E-04 energy =      -5912.6609412834

  ----------------------------------- OT ---------------------------------------
  Minimizer      : DIIS                : direct inversion
                                         in the iterative subspace
                                         using   8 DIIS vectors
                                         safer DIIS on
  Preconditioner : FULL_KINETIC        : inversion of T + eS
  Precond_solver : DEFAULT
  stepsize       :    0.15000000                  energy_gap     :    0.00010000
  eps_taylor     :   0.10000E-15                  max_taylor     :             4
  ----------------------------------- OT ---------------------------------------

  Step     Update method      Time    Convergence         Total energy    Change
  ------------------------------------------------------------------------------
     1 OT DIIS     0.15E+00   36.0     0.00006319     -5912.6650557030 -4.11E-03
     2 OT DIIS     0.15E+00   15.6     0.00019396     -5912.6650544678  1.24E-06
     3 OT DIIS     0.15E+00   15.6     0.00005271     -5912.6709341428 -5.88E-03
     4 OT DIIS     0.15E+00   15.7     0.00006449     -5912.6731166583 -2.18E-03
     5 OT DIIS     0.15E+00   15.7     0.00006782     -5912.6801509237 -7.03E-03
     6 OT DIIS     0.15E+00   15.7     0.00004035     -5912.6855442346 -5.39E-03
     7 OT DIIS     0.15E+00   15.7     0.00004591     -5912.6889191543 -3.37E-03
     8 OT DIIS     0.15E+00   15.7     0.00004577     -5912.6931254758 -4.21E-03
     9 OT SD       0.15E+00   15.7     0.00003169     -5912.7018050501 -8.68E-03
    10 OT DIIS     0.15E+00   15.7     0.00010819     -5912.7011799746  6.25E-04
    11 OT DIIS     0.15E+00   15.7     0.00002780     -5912.7067220108 -5.54E-03
    12 OT DIIS     0.15E+00   15.7     0.00002660     -5912.7079422534 -1.22E-03
    13 OT DIIS     0.15E+00   15.7     0.00002549     -5912.7086778162 -7.36E-04
    14 OT DIIS     0.15E+00   15.7     0.00002436     -5912.7099671655 -1.29E-03
    15 OT DIIS     0.15E+00   15.7     0.00002204     -5912.7108497381 -8.83E-04
    16 OT DIIS     0.15E+00   15.7     0.00001918     -5912.7116090184 -7.59E-04
    17 OT DIIS     0.15E+00   15.9     0.00002153     -5912.7119301079 -3.21E-04
    18 OT DIIS     0.15E+00   15.9     0.00001554     -5912.7134576843 -1.53E-03
    19 OT DIIS     0.15E+00   15.9     0.00001815     -5912.7144389062 -9.81E-04
    20 OT DIIS     0.15E+00   15.9     0.00001719     -5912.7151428520 -7.04E-04
    21 OT DIIS     0.15E+00   15.8     0.00001622     -5912.7160498447 -9.07E-04
    22 OT DIIS     0.15E+00   15.9     0.00001756     -5912.7165914231 -5.42E-04
    23 OT DIIS     0.15E+00   15.9     0.00001712     -5912.7176266278 -1.04E-03
    24 OT DIIS     0.15E+00   15.9     0.00001529     -5912.7181760194 -5.49E-04
    25 OT DIIS     0.15E+00   15.9     0.00001445     -5912.7186216785 -4.46E-04
    26 OT DIIS     0.15E+00   16.0     0.00001697     -5912.7189462872 -3.25E-04
    27 OT DIIS     0.15E+00   16.0     0.00001119     -5912.7196558535 -7.10E-04
    28 OT DIIS     0.15E+00   16.0     0.00001131     -5912.7201539169 -4.98E-04
    29 OT DIIS     0.15E+00   16.0     0.00001214     -5912.7205162382 -3.62E-04
    30 OT DIIS     0.15E+00   16.0     0.00001059     -5912.7209348937 -4.19E-04

  Leaving inner SCF loop after reaching    30 steps.


  Electronic density on regular grids:      -3468.0000000001       -0.0000000001
  Core density on regular grids:             3467.9999999952       -0.0000000048
  Total charge density on r-space grids:       -0.0000000048
  Total charge density g-space grids:          -0.0000000039

  Overlap energy of the core charge distribution:               0.00000032801789
  Self energy of the core charge distribution:             -13952.81139369569428
  Core Hamiltonian energy:                                   3144.15167533077874
  Hartree energy:                                            6202.31629654527387
  Exchange-correlation energy:                              -1303.91212114481959
  Dispersion energy:                                           -2.46539225726317

  Total energy:                                             -5912.72093489370673

  outer SCF iter =    3 RMS gradient =   0.11E-04 energy =      -5912.7209348937

  ----------------------------------- OT ---------------------------------------
  Minimizer      : DIIS                : direct inversion
                                         in the iterative subspace
                                         using   8 DIIS vectors
                                         safer DIIS on
  Preconditioner : FULL_KINETIC        : inversion of T + eS
  Precond_solver : DEFAULT
  stepsize       :    0.15000000                  energy_gap     :    0.00010000
  eps_taylor     :   0.10000E-15                  max_taylor     :             4
  ----------------------------------- OT ---------------------------------------

  Step     Update method      Time    Convergence         Total energy    Change
  ------------------------------------------------------------------------------
     1 OT DIIS     0.15E+00   34.7     0.00001183     -5912.7211488778 -2.14E-04
     2 OT DIIS     0.15E+00   15.4     0.00004285     -5912.7210888089  6.01E-05
     3 OT DIIS     0.15E+00   15.4     0.00000957     -5912.7213519428 -2.63E-04
     4 OT DIIS     0.15E+00   15.5     0.00001106     -5912.7214297394 -7.78E-05
     5 OT DIIS     0.15E+00   15.6     0.00001080     -5912.7218409912 -4.11E-04
     6 OT DIIS     0.15E+00   15.7     0.00000883     -5912.7223082635 -4.67E-04
     7 OT DIIS     0.15E+00   15.7     0.00000926     -5912.7225167541 -2.08E-04
     8 OT DIIS     0.15E+00   15.6     0.00000799     -5912.7227350579 -2.18E-04
     9 OT DIIS     0.15E+00   15.7     0.00000623     -5912.7231141678 -3.79E-04
    10 OT DIIS     0.15E+00   15.7     0.00000871     -5912.7232052398 -9.11E-05
    11 OT DIIS     0.15E+00   15.6     0.00000614     -5912.7234291837 -2.24E-04
    12 OT DIIS     0.15E+00   15.7     0.00000677     -5912.7234885382 -5.94E-05
    13 OT DIIS     0.15E+00   15.7     0.00000618     -5912.7235584946 -7.00E-05
    14 OT DIIS     0.15E+00   15.7     0.00000609     -5912.7236700537 -1.12E-04
    15 OT DIIS     0.15E+00   15.7     0.00000571     -5912.7237707259 -1.01E-04
    16 OT DIIS     0.15E+00   15.7     0.00000575     -5912.7238519945 -8.13E-05
    17 OT DIIS     0.15E+00   15.7     0.00000566     -5912.7239575302 -1.06E-04
    18 OT DIIS     0.15E+00   15.6     0.00000538     -5912.7241342334 -1.77E-04
    19 OT DIIS     0.15E+00   15.6     0.00000554     -5912.7242780530 -1.44E-04
    20 OT DIIS     0.15E+00   15.6     0.00000545     -5912.7244677716 -1.90E-04
    21 OT DIIS     0.15E+00   15.6     0.00000559     -5912.7246283704 -1.61E-04
    22 OT DIIS     0.15E+00   15.6     0.00000565     -5912.7247572538 -1.29E-04
    23 OT DIIS     0.15E+00   15.6     0.00000582     -5912.7250163054 -2.59E-04
    24 OT DIIS     0.15E+00   15.6     0.00000528     -5912.7252239398 -2.08E-04
    25 OT DIIS     0.15E+00   15.6     0.00000545     -5912.7254064273 -1.82E-04
    26 OT DIIS     0.15E+00   15.6     0.00000527     -5912.7256304561 -2.24E-04
    27 OT DIIS     0.15E+00   15.6     0.00000485     -5912.7259178935 -2.87E-04
    28 OT DIIS     0.15E+00   15.6     0.00000492     -5912.7261579960 -2.40E-04
    29 OT DIIS     0.15E+00   15.6     0.00000508     -5912.7264379298 -2.80E-04
    30 OT DIIS     0.15E+00   15.6     0.00000502     -5912.7266589013 -2.21E-04

  Leaving inner SCF loop after reaching    30 steps.


  Electronic density on regular grids:      -3468.0000030788       -0.0000030788
  Core density on regular grids:             3467.9999999952       -0.0000000048
  Total charge density on r-space grids:       -0.0000030836
  Total charge density g-space grids:          -0.0000030827

  Overlap energy of the core charge distribution:               0.00000032801789
  Self energy of the core charge distribution:             -13952.81139369569428
  Core Hamiltonian energy:                                   3144.13146783140155
  Hartree energy:                                            6202.32660611383108
  Exchange-correlation energy:                              -1303.90794722156625
  Dispersion energy:                                           -2.46539225726317

  Total energy:                                             -5912.72665890127337

  outer SCF iter =    4 RMS gradient =   0.50E-05 energy =      -5912.7266589013

  ----------------------------------- OT ---------------------------------------
  Minimizer      : DIIS                : direct inversion
                                         in the iterative subspace
                                         using   8 DIIS vectors
                                         safer DIIS on
  Preconditioner : FULL_KINETIC        : inversion of T + eS
  Precond_solver : DEFAULT
  stepsize       :    0.15000000                  energy_gap     :    0.00010000
  eps_taylor     :   0.10000E-15                  max_taylor     :             4
  ----------------------------------- OT ---------------------------------------

  Step     Update method      Time    Convergence         Total energy    Change
  ------------------------------------------------------------------------------
     1 OT DIIS     0.15E+00   35.5     0.00000517     -5912.7267921381 -1.33E-04
     2 OT DIIS     0.15E+00   15.3     0.00001779     -5912.7267884707  3.67E-06
     3 OT DIIS     0.15E+00   15.4     0.00000435     -5912.7268334198 -4.49E-05
     4 OT DIIS     0.15E+00   15.5     0.00000454     -5912.7268502453 -1.68E-05
     5 OT DIIS     0.15E+00   15.5     0.00000469     -5912.7268958576 -4.56E-05
     6 OT DIIS     0.15E+00   15.5     0.00000417     -5912.7269831631 -8.73E-05
     7 OT DIIS     0.15E+00   15.5     0.00000427     -5912.7270457516 -6.26E-05
     8 OT DIIS     0.15E+00   15.5     0.00000440     -5912.7271197546 -7.40E-05
     9 OT DIIS     0.15E+00   15.6     0.00000345     -5912.7272461900 -1.26E-04
    10 OT DIIS     0.15E+00   15.7     0.00000413     -5912.7273119316 -6.57E-05
    11 OT DIIS     0.15E+00   15.7     0.00000365     -5912.7273872051 -7.53E-05
    12 OT DIIS     0.15E+00   15.7     0.00000386     -5912.7274071080 -1.99E-05
    13 OT DIIS     0.15E+00   15.7     0.00000342     -5912.7274456481 -3.85E-05
    14 OT DIIS     0.15E+00   15.7     0.00000370     -5912.7275182877 -7.26E-05
    15 OT DIIS     0.15E+00   15.7     0.00000325     -5912.7275685467 -5.03E-05
    16 OT DIIS     0.15E+00   15.7     0.00000330     -5912.7276117506 -4.32E-05
    17 OT DIIS     0.15E+00   15.7     0.00000322     -5912.7276668955 -5.51E-05
    18 OT DIIS     0.15E+00   15.7     0.00000305     -5912.7277356291 -6.87E-05
    19 OT DIIS     0.15E+00   15.6     0.00000307     -5912.7278017163 -6.61E-05
    20 OT DIIS     0.15E+00   15.6     0.00000322     -5912.7278923447 -9.06E-05
    21 OT DIIS     0.15E+00   15.5     0.00000323     -5912.7279256242 -3.33E-05
    22 OT DIIS     0.15E+00   15.6     0.00000318     -5912.7279699366 -4.43E-05
    23 OT DIIS     0.15E+00   15.6     0.00000326     -5912.7280911030 -1.21E-04
    24 OT DIIS     0.15E+00   15.6     0.00000296     -5912.7281394142 -4.83E-05
    25 OT DIIS     0.15E+00   15.7     0.00000298     -5912.7282145215 -7.51E-05
    26 OT DIIS     0.15E+00   15.7     0.00000295     -5912.7283011187 -8.66E-05
    27 OT DIIS     0.15E+00   15.7     0.00000271     -5912.7284098619 -1.09E-04
    28 OT DIIS     0.15E+00   15.7     0.00000275     -5912.7285130206 -1.03E-04
    29 OT DIIS     0.15E+00   15.7     0.00000290     -5912.7286345753 -1.22E-04
    30 OT DIIS     0.15E+00   15.7     0.00000295     -5912.7286717211 -3.71E-05

  Leaving inner SCF loop after reaching    30 steps.


  Electronic density on regular grids:      -3468.0000003274       -0.0000003274
  Core density on regular grids:             3467.9999999952       -0.0000000048
  Total charge density on r-space grids:       -0.0000003322
  Total charge density g-space grids:          -0.0000003313

  Overlap energy of the core charge distribution:               0.00000032801789
  Self energy of the core charge distribution:             -13952.81139369569428
  Core Hamiltonian energy:                                   3144.12315185360103
  Hartree energy:                                            6202.33143132094028
  Exchange-correlation energy:                              -1303.90646927070839
  Dispersion energy:                                           -2.46539225726317

  Total energy:                                             -5912.72867172110637

  outer SCF iter =    5 RMS gradient =   0.29E-05 energy =      -5912.7286717211

  ----------------------------------- OT ---------------------------------------
  Minimizer      : DIIS                : direct inversion
                                         in the iterative subspace
                                         using   8 DIIS vectors
                                         safer DIIS on
  Preconditioner : FULL_KINETIC        : inversion of T + eS
  Precond_solver : DEFAULT
  stepsize       :    0.15000000                  energy_gap     :    0.00010000
  eps_taylor     :   0.10000E-15                  max_taylor     :             4
  ----------------------------------- OT ---------------------------------------

  Step     Update method      Time    Convergence         Total energy    Change
  ------------------------------------------------------------------------------
     1 OT DIIS     0.15E+00   34.3     0.00000296     -5912.7287245552 -5.28E-05
     2 OT DIIS     0.15E+00   15.4     0.00001020     -5912.7287229875  1.57E-06
     3 OT DIIS     0.15E+00   15.4     0.00000249     -5912.7287380326 -1.50E-05
     4 OT DIIS     0.15E+00   15.5     0.00000263     -5912.7287427727 -4.74E-06
     5 OT DIIS     0.15E+00   15.5     0.00000265     -5912.7287622241 -1.95E-05
     6 OT DIIS     0.15E+00   15.5     0.00000228     -5912.7288021090 -3.99E-05
     7 OT DIIS     0.15E+00   15.5     0.00000229     -5912.7288247823 -2.27E-05
     8 OT DIIS     0.15E+00   15.5     0.00000252     -5912.7288480519 -2.33E-05
     9 OT DIIS     0.15E+00   15.5     0.00000198     -5912.7288760480 -2.80E-05
    10 OT DIIS     0.15E+00   15.7     0.00000235     -5912.7288846810 -8.63E-06
    11 OT DIIS     0.15E+00   15.6     0.00000197     -5912.7289115313 -2.69E-05
    12 OT DIIS     0.15E+00   15.7     0.00000212     -5912.7289188586 -7.33E-06
    13 OT DIIS     0.15E+00   15.7     0.00000197     -5912.7289285429 -9.68E-06
    14 OT DIIS     0.15E+00   15.7     0.00000202     -5912.7289454464 -1.69E-05
    15 OT DIIS     0.15E+00   15.7     0.00000186     -5912.7289622675 -1.68E-05
    16 OT DIIS     0.15E+00   15.7     0.00000186     -5912.7289738187 -1.16E-05
    17 OT DIIS     0.15E+00   15.7     0.00000186     -5912.7289862241 -1.24E-05
    18 OT DIIS     0.15E+00   15.6     0.00000183     -5912.7289984639 -1.22E-05
    19 OT DIIS     0.15E+00   15.6     0.00000186     -5912.7290099801 -1.15E-05
    20 OT DIIS     0.15E+00   15.6     0.00000184     -5912.7290262262 -1.62E-05
    21 OT DIIS     0.15E+00   15.6     0.00000184     -5912.7290356279 -9.40E-06
    22 OT DIIS     0.15E+00   15.5     0.00000183     -5912.7290421087 -6.48E-06
    23 OT DIIS     0.15E+00   15.6     0.00000183     -5912.7290572982 -1.52E-05
    24 OT DIIS     0.15E+00   15.7     0.00000181     -5912.7290660173 -8.72E-06
    25 OT DIIS     0.15E+00   15.7     0.00000181     -5912.7290787837 -1.28E-05
    26 OT DIIS     0.15E+00   15.7     0.00000181     -5912.7290951902 -1.64E-05
    27 OT DIIS     0.15E+00   15.7     0.00000180     -5912.7291078002 -1.26E-05
    28 OT DIIS     0.15E+00   15.6     0.00000181     -5912.7291222059 -1.44E-05
    29 OT DIIS     0.15E+00   15.6     0.00000180     -5912.7291339027 -1.17E-05
    30 OT DIIS     0.15E+00   15.6     0.00000180     -5912.7291421035 -8.20E-06

  Leaving inner SCF loop after reaching    30 steps.


  Electronic density on regular grids:      -3468.0000000003       -0.0000000003
  Core density on regular grids:             3467.9999999952       -0.0000000048
  Total charge density on r-space grids:       -0.0000000051
  Total charge density g-space grids:          -0.0000000042

  Overlap energy of the core charge distribution:               0.00000032801789
  Self energy of the core charge distribution:             -13952.81139369569428
  Core Hamiltonian energy:                                   3144.12073190720366
  Hartree energy:                                            6202.33307393746963
  Exchange-correlation energy:                              -1303.90616232322782
  Dispersion energy:                                           -2.46539225726317

  Total energy:                                             -5912.72914210349336

  outer SCF iter =    6 RMS gradient =   0.18E-05 energy =      -5912.7291421035

  ----------------------------------- OT ---------------------------------------
  Minimizer      : DIIS                : direct inversion
                                         in the iterative subspace
                                         using   8 DIIS vectors
                                         safer DIIS on
  Preconditioner : FULL_KINETIC        : inversion of T + eS
  Precond_solver : DEFAULT
  stepsize       :    0.15000000                  energy_gap     :    0.00010000
  eps_taylor     :   0.10000E-15                  max_taylor     :             4
  ----------------------------------- OT ---------------------------------------

  Step     Update method      Time    Convergence         Total energy    Change
  ------------------------------------------------------------------------------
     1 OT DIIS     0.15E+00   35.5     0.00000180     -5912.7291470110 -4.91E-06
     2 OT DIIS     0.15E+00   15.4     0.00000191     -5912.7291532625 -6.25E-06
     3 OT DIIS     0.15E+00   15.4     0.00000180     -5912.7291542170 -9.55E-07
     4 OT DIIS     0.15E+00   15.5     0.00000180     -5912.7291588706 -4.65E-06
     5 OT DIIS     0.15E+00   15.5     0.00000180     -5912.7291666698 -7.80E-06
     6 OT SD       0.15E+00   15.5     0.00000180     -5912.7291739996 -7.33E-06
     7 OT SD       0.15E+00   15.5     0.00000180     -5912.7291803029 -6.30E-06
     8 OT SD       0.15E+00   15.5     0.00000181     -5912.7291866047 -6.30E-06
     9 OT SD       0.15E+00   15.5     0.00000207     -5912.7291927588 -6.15E-06
    10 OT SD       0.15E+00   15.5     0.00000584     -5912.7291945955 -1.84E-06
    11 OT DIIS     0.15E+00   15.5     0.00003098     -5912.7290641887  1.30E-04
    12 OT SD       0.15E+00   15.5     0.00000181     -5912.7291226995 -5.85E-05
    13 OT SD       0.15E+00   15.5     0.00000221     -5912.7291287485 -6.05E-06
    14 OT SD       0.15E+00   15.5     0.00000808     -5912.7291267882  1.96E-06
    15 OT DIIS     0.15E+00   15.5     0.00004911     -5912.7288167373  3.10E-04
    16 OT SD       0.15E+00   15.5     0.00000181     -5912.7290972059 -2.80E-04
    17 OT SD       0.15E+00   15.5     0.00000224     -5912.7291031992 -5.99E-06
    18 OT SD       0.15E+00   15.4     0.00000790     -5912.7291011286  2.07E-06
    19 OT DIIS     0.15E+00   15.5     0.00004459     -5912.7288310838  2.70E-04
    20 OT SD       0.15E+00   15.5     0.00000182     -5912.7289719196 -1.41E-04
    21 OT DIIS     0.15E+00   15.4     0.00000220     -5912.7289778404 -5.92E-06
    22 OT SD       0.15E+00   15.4     0.00000183     -5912.7290001909 -2.24E-05
    23 OT SD       0.15E+00   15.4     0.00000299     -5912.7290054221 -5.23E-06
    24 OT SD       0.15E+00   15.5     0.00001331     -5912.7289862895  1.91E-05
    25 OT DIIS     0.15E+00   15.6     0.00007336     -5912.7282199910  7.66E-04
    26 OT DIIS     0.15E+00   15.4     0.00000187     -5912.7289749075 -7.55E-04
    27 OT DIIS     0.15E+00   15.4     0.00000184     -5912.7290328248 -5.79E-05
    28 OT SD       0.15E+00   15.4     0.00000184     -5912.7290490595 -1.62E-05
    29 OT DIIS     0.15E+00   15.4     0.00000376     -5912.7290534621 -4.40E-06
    30 OT DIIS     0.15E+00   15.5     0.00000178     -5912.7290832339 -2.98E-05

  Leaving inner SCF loop after reaching    30 steps.


  Electronic density on regular grids:      -3467.9999999968        0.0000000032
  Core density on regular grids:             3467.9999999952       -0.0000000048
  Total charge density on r-space grids:       -0.0000000016
  Total charge density g-space grids:          -0.0000000007

  Overlap energy of the core charge distribution:               0.00000032801789
  Self energy of the core charge distribution:             -13952.81139369569428
  Core Hamiltonian energy:                                   3144.12144941171346
  Hartree energy:                                            6202.33257866959138
  Exchange-correlation energy:                              -1303.90632569021932
  Dispersion energy:                                           -2.46539225726317

  Total energy:                                             -5912.72908323385309

  outer SCF iter =    7 RMS gradient =   0.18E-05 energy =      -5912.7290832339

  ----------------------------------- OT ---------------------------------------
  Minimizer      : DIIS                : direct inversion
                                         in the iterative subspace
                                         using   8 DIIS vectors
                                         safer DIIS on
  Preconditioner : FULL_KINETIC        : inversion of T + eS
  Precond_solver : DEFAULT
  stepsize       :    0.15000000                  energy_gap     :    0.00010000
  eps_taylor     :   0.10000E-15                  max_taylor     :             4
  ----------------------------------- OT ---------------------------------------

  Step     Update method      Time    Convergence         Total energy    Change
  ------------------------------------------------------------------------------
     1 OT DIIS     0.15E+00   34.2     0.00000177     -5912.7290843648 -1.13E-06
     2 OT DIIS     0.15E+00   15.3     0.00000264     -5912.7290897492 -5.38E-06
     3 OT DIIS     0.15E+00   15.4     0.00000175     -5912.7290911309 -1.38E-06
     4 OT DIIS     0.15E+00   15.4     0.00000174     -5912.7290928745 -1.74E-06
     5 OT DIIS     0.15E+00   15.5     0.00000174     -5912.7290942221 -1.35E-06
     6 OT SD       0.15E+00   15.5     0.00000174     -5912.7290966823 -2.46E-06
     7 OT SD       0.15E+00   15.5     0.00000174     -5912.7291025941 -5.91E-06
     8 OT SD       0.15E+00   15.5     0.00000175     -5912.7291085012 -5.91E-06
     9 OT SD       0.15E+00   15.5     0.00000221     -5912.7291141717 -5.67E-06
    10 OT SD       0.15E+00   15.5     0.00000849     -5912.7291108939  3.28E-06
    11 OT DIIS     0.15E+00   15.6     0.00005126     -5912.7287686019  3.42E-04
    12 OT SD       0.15E+00   15.5     0.00000176     -5912.7290424877 -2.74E-04
    13 OT SD       0.15E+00   15.5     0.00000228     -5912.7290480753 -5.59E-06
    14 OT SD       0.15E+00   15.6     0.00000879     -5912.7290437838  4.29E-06
    15 OT DIIS     0.15E+00   15.7     0.00005169     -5912.7286889646  3.55E-04
    16 OT SD       0.15E+00   15.5     0.00000174     -5912.7290193821 -3.30E-04
    17 OT SD       0.15E+00   15.5     0.00000185     -5912.7290252136 -5.83E-06
    18 OT SD       0.15E+00   15.4     0.00000417     -5912.7290291393 -3.93E-06
    19 OT DIIS     0.15E+00   15.4     0.00002286     -5912.7289649020  6.42E-05
    20 OT SD       0.15E+00   15.4     0.00000173     -5912.7290226550 -5.78E-05
    21 OT SD       0.15E+00   15.4     0.00000184     -5912.7290284331 -5.78E-06
    22 OT SD       0.15E+00   15.4     0.00000431     -5912.7290322127 -3.78E-06
    23 OT DIIS     0.15E+00   15.4     0.00002499     -5912.7289572919  7.49E-05
    24 OT DIIS     0.15E+00   15.4     0.00000173     -5912.7290464792 -8.92E-05
    25 OT DIIS     0.15E+00   15.4     0.00000172     -5912.7290760636 -2.96E-05
    26 OT DIIS     0.15E+00   15.5     0.00000173     -5912.7290992207 -2.32E-05
    27 OT DIIS     0.15E+00   15.5     0.00000171     -5912.7291126683 -1.34E-05
    28 OT DIIS     0.15E+00   15.5     0.00000171     -5912.7291211786 -8.51E-06
    29 OT DIIS     0.15E+00   15.5     0.00000172     -5912.7291372287 -1.61E-05
    30 OT DIIS     0.15E+00   15.4     0.00000170     -5912.7291564246 -1.92E-05

  Leaving inner SCF loop after reaching    30 steps.


  Electronic density on regular grids:      -3467.9999999849        0.0000000151
  Core density on regular grids:             3467.9999999952       -0.0000000048
  Total charge density on r-space grids:        0.0000000103
  Total charge density g-space grids:           0.0000000113

  Overlap energy of the core charge distribution:               0.00000032801789
  Self energy of the core charge distribution:             -13952.81139369569428
  Core Hamiltonian energy:                                   3144.12056103074156
  Hartree energy:                                            6202.33315566058263
  Exchange-correlation energy:                              -1303.90608749094622
  Dispersion energy:                                           -2.46539225726317

  Total energy:                                             -5912.72915642456064

  outer SCF iter =    8 RMS gradient =   0.17E-05 energy =      -5912.7291564246

  ----------------------------------- OT ---------------------------------------
  Minimizer      : DIIS                : direct inversion
                                         in the iterative subspace
                                         using   8 DIIS vectors
                                         safer DIIS on
  Preconditioner : FULL_KINETIC        : inversion of T + eS
  Precond_solver : DEFAULT
  stepsize       :    0.15000000                  energy_gap     :    0.00010000
  eps_taylor     :   0.10000E-15                  max_taylor     :             4
  ----------------------------------- OT ---------------------------------------

  Step     Update method      Time    Convergence         Total energy    Change
  ------------------------------------------------------------------------------
     1 OT DIIS     0.15E+00   35.3     0.00000169     -5912.7291768017 -2.04E-05
     2 OT DIIS     0.15E+00   15.4     0.00000192     -5912.7291822139 -5.41E-06
     3 OT DIIS     0.15E+00   15.4     0.00000169     -5912.7291832578 -1.04E-06
     4 OT DIIS     0.15E+00   15.4     0.00000168     -5912.7291851704 -1.91E-06
     5 OT DIIS     0.15E+00   15.5     0.00000170     -5912.7291940082 -8.84E-06
     6 OT DIIS     0.15E+00   15.5     0.00000168     -5912.7292034627 -9.45E-06
     7 OT SD       0.15E+00   15.5     0.00000168     -5912.7292043970 -9.34E-07
     8 OT SD       0.15E+00   15.5     0.00000168     -5912.7292099177 -5.52E-06
     9 OT SD       0.15E+00   15.5     0.00000170     -5912.7292154378 -5.52E-06
    10 OT SD       0.15E+00   15.5     0.00000224     -5912.7292206832 -5.25E-06
    11 OT SD       0.15E+00   15.5     0.00000920     -5912.7292153810  5.30E-06
    12 OT DIIS     0.15E+00   15.5     0.00005621     -5912.7288054954  4.10E-04
    13 OT SD       0.15E+00   15.5     0.00000170     -5912.7291447237 -3.39E-04
    14 OT SD       0.15E+00   15.5     0.00000219     -5912.7291498833 -5.16E-06
    15 OT SD       0.15E+00   15.6     0.00000792     -5912.7291467464  3.14E-06
    16 OT DIIS     0.15E+00   15.6     0.00004424     -5912.7288782684  2.68E-04
    17 OT SD       0.15E+00   15.5     0.00000174     -5912.7290998992 -2.22E-04
    18 OT SD       0.15E+00   15.5     0.00000341     -5912.7291040699 -4.17E-06
    19 OT SD       0.15E+00   15.5     0.00001753     -5912.7290675756  3.65E-05
    20 OT DIIS     0.15E+00   15.6     0.00010354     -5912.7276098473  1.46E-03
    21 OT SD       0.15E+00   15.6     0.00000174     -5912.7289183675 -1.31E-03
    22 OT DIIS     0.15E+00   15.6     0.00000230     -5912.7289235794 -5.21E-06
    23 OT SD       0.15E+00   15.5     0.00000165     -5912.7290505829 -1.27E-04
    24 OT SD       0.15E+00   15.5     0.00000180     -5912.7290557141 -5.13E-06
    25 OT SD       0.15E+00   15.5     0.00000465     -5912.7290583131 -2.60E-06
    26 OT DIIS     0.15E+00   15.5     0.00002622     -5912.7289713672  8.69E-05
    27 OT DIIS     0.15E+00   15.5     0.00000165     -5912.7290759684 -1.05E-04
    28 OT DIIS     0.15E+00   15.4     0.00000164     -5912.7290986399 -2.27E-05
    29 OT SD       0.15E+00   15.4     0.00000164     -5912.7291044269 -5.79E-06
    30 OT SD       0.15E+00   15.4     0.00000201     -5912.7291094505 -5.02E-06

  Leaving inner SCF loop after reaching    30 steps.


  Electronic density on regular grids:      -3467.9999999964        0.0000000036
  Core density on regular grids:             3467.9999999952       -0.0000000048
  Total charge density on r-space grids:       -0.0000000012
  Total charge density g-space grids:          -0.0000000003

  Overlap energy of the core charge distribution:               0.00000032801789
  Self energy of the core charge distribution:             -13952.81139369569428
  Core Hamiltonian energy:                                   3144.12124563062071
  Hartree energy:                                            6202.33269412850041
  Exchange-correlation energy:                              -1303.90626358471445
  Dispersion energy:                                           -2.46539225726317

  Total energy:                                             -5912.72910945053263

  outer SCF iter =    9 RMS gradient =   0.20E-05 energy =      -5912.7291094505

  ----------------------------------- OT ---------------------------------------
  Minimizer      : DIIS                : direct inversion
                                         in the iterative subspace
                                         using   8 DIIS vectors
                                         safer DIIS on
  Preconditioner : FULL_KINETIC        : inversion of T + eS
  Precond_solver : DEFAULT
  stepsize       :    0.15000000                  energy_gap     :    0.00010000
  eps_taylor     :   0.10000E-15                  max_taylor     :             4
  ----------------------------------- OT ---------------------------------------

  Step     Update method      Time    Convergence         Total energy    Change
  ------------------------------------------------------------------------------
     1 OT DIIS     0.15E+00   34.0     0.00000733     -5912.7291078337  1.62E-06
     2 OT DIIS     0.15E+00   15.4     0.00004388     -5912.7288569935  2.51E-04
     3 OT DIIS     0.15E+00   15.4     0.00000214     -5912.7291205044 -2.64E-04
     4 OT DIIS     0.15E+00   15.4     0.00000164     -5912.7291216245 -1.12E-06
     5 OT SD       0.15E+00   15.5     0.00000164     -5912.7291227045 -1.08E-06
     6 OT SD       0.15E+00   15.5     0.00000165     -5912.7291279197 -5.22E-06
     7 OT SD       0.15E+00   15.5     0.00000208     -5912.7291329271 -5.01E-06
     8 OT SD       0.15E+00   15.5     0.00000815     -5912.7291297828  3.14E-06
     9 OT DIIS     0.15E+00   15.6     0.00005006     -5912.7288076591  3.22E-04
    10 OT DIIS     0.15E+00   15.5     0.00000164     -5912.7290274087 -2.20E-04
    11 OT DIIS     0.15E+00   15.4     0.00000164     -5912.7290332839 -5.88E-06
    12 OT DIIS     0.15E+00   15.5     0.00000166     -5912.7290421091 -8.83E-06
    13 OT DIIS     0.15E+00   15.5     0.00000167     -5912.7290496550 -7.55E-06
    14 OT SD       0.15E+00   15.5     0.00000164     -5912.7290736456 -2.40E-05
    15 OT SD       0.15E+00   15.5     0.00000198     -5912.7290786598 -5.01E-06
    16 OT DIIS     0.15E+00   15.5     0.00000693     -5912.7290777365  9.23E-07
    17 OT DIIS     0.15E+00   15.5     0.00000163     -5912.7290857042 -7.97E-06
    18 OT DIIS     0.15E+00   15.5     0.00000163     -5912.7290867677 -1.06E-06
    19 OT DIIS     0.15E+00   15.4     0.00000163     -5912.7290876374 -8.70E-07
    20 OT SD       0.15E+00   15.4     0.00000163     -5912.7290902694 -2.63E-06
    21 OT SD       0.15E+00   15.5     0.00000164     -5912.7290954501 -5.18E-06
    22 OT SD       0.15E+00   15.4     0.00000189     -5912.7291005102 -5.06E-06
    23 OT SD       0.15E+00   15.5     0.00000595     -5912.7291012940 -7.84E-07
    24 OT DIIS     0.15E+00   15.5     0.00003516     -5912.7289428646  1.58E-04
    25 OT SD       0.15E+00   15.5     0.00000163     -5912.7290733178 -1.30E-04
    26 OT SD       0.15E+00   15.5     0.00000176     -5912.7290784380 -5.12E-06
    27 OT SD       0.15E+00   15.5     0.00000426     -5912.7290815415 -3.10E-06
    28 OT DIIS     0.15E+00   15.4     0.00002434     -5912.7290087975  7.27E-05
    29 OT SD       0.15E+00   15.5     0.00000164     -5912.7290515443 -4.27E-05
    30 OT SD       0.15E+00   15.5     0.00000205     -5912.7290565098 -4.97E-06

  Leaving inner SCF loop after reaching    30 steps.


  Electronic density on regular grids:      -3467.9999999982        0.0000000018
  Core density on regular grids:             3467.9999999952       -0.0000000048
  Total charge density on r-space grids:       -0.0000000029
  Total charge density g-space grids:          -0.0000000020

  Overlap energy of the core charge distribution:               0.00000032801789
  Self energy of the core charge distribution:             -13952.81139369569428
  Core Hamiltonian energy:                                   3144.12164006715011
  Hartree energy:                                            6202.33242261420492
  Exchange-correlation energy:                              -1303.90633356623630
  Dispersion energy:                                           -2.46539225726317

  Total energy:                                             -5912.72905650982102

  outer SCF iter =   10 RMS gradient =   0.20E-05 energy =      -5912.7290565098

  ----------------------------------- OT ---------------------------------------
  Minimizer      : DIIS                : direct inversion
                                         in the iterative subspace
                                         using   8 DIIS vectors
                                         safer DIIS on
  Preconditioner : FULL_KINETIC        : inversion of T + eS
  Precond_solver : DEFAULT
  stepsize       :    0.15000000                  energy_gap     :    0.00010000
  eps_taylor     :   0.10000E-15                  max_taylor     :             4
  ----------------------------------- OT ---------------------------------------

  Step     Update method      Time    Convergence         Total energy    Change
  ------------------------------------------------------------------------------
     1 OT DIIS     0.15E+00   35.3     0.00000787     -5912.7290538515  2.66E-06
     2 OT DIIS     0.15E+00   15.5     0.00004804     -5912.7287561253  2.98E-04
     3 OT DIIS     0.15E+00   15.4     0.00000230     -5912.7290673709 -3.11E-04
     4 OT DIIS     0.15E+00   15.5     0.00000164     -5912.7290685781 -1.21E-06
     5 OT DIIS     0.15E+00   15.5     0.00000163     -5912.7290700663 -1.49E-06
     6 OT DIIS     0.15E+00   15.5     0.00000163     -5912.7290714028 -1.34E-06
     7 OT DIIS     0.15E+00   15.5     0.00000163     -5912.7290768850 -5.48E-06
     8 OT SD       0.15E+00   15.4     0.00000163     -5912.7290921929 -1.53E-05
     9 OT SD       0.15E+00   15.5     0.00000164     -5912.7290973525 -5.16E-06
    10 OT SD       0.15E+00   15.5     0.00000197     -5912.7291023438 -4.99E-06
    11 OT SD       0.15E+00   15.5     0.00000655     -5912.7291018355  5.08E-07
    12 OT DIIS     0.15E+00   15.5     0.00003637     -5912.7289215824  1.80E-04
    13 OT SD       0.15E+00   15.5     0.00000163     -5912.7290481786 -1.27E-04
    14 OT SD       0.15E+00   15.5     0.00000176     -5912.7290532455 -5.07E-06
    15 OT SD       0.15E+00   15.5     0.00000400     -5912.7290565140 -3.27E-06
    16 OT DIIS     0.15E+00   15.5     0.00002212     -5912.7289969864  5.95E-05
    17 OT DIIS     0.15E+00   15.5     0.00000163     -5912.7289580898  3.89E-05
    18 OT DIIS     0.15E+00   15.5     0.00000170     -5912.7289816073 -2.35E-05
    19 OT SD       0.15E+00   15.5     0.00000165     -5912.7290689953 -8.74E-05
    20 OT SD       0.15E+00   15.4     0.00000232     -5912.7290737664 -4.77E-06
    21 OT SD       0.15E+00   15.3     0.00000994     -5912.7290657503  8.02E-06
    22 OT DIIS     0.15E+00   15.6     0.00005867     -5912.7286044267  4.61E-04
    23 OT SD       0.15E+00   15.5     0.00000163     -5912.7290440994 -4.40E-04
    24 OT SD       0.15E+00   15.4     0.00000182     -5912.7290491285 -5.03E-06
    25 OT SD       0.15E+00   15.4     0.00000524     -5912.7290509124 -1.78E-06
    26 OT DIIS     0.15E+00   15.4     0.00003051     -5912.7289321443  1.19E-04
    27 OT SD       0.15E+00   15.4     0.00000164     -5912.7289343421 -2.20E-06
    28 OT DIIS     0.15E+00   15.5     0.00000198     -5912.7289392518 -4.91E-06
    29 OT SD       0.15E+00   15.5     0.00000162     -5912.7289920246 -5.28E-05
    30 OT SD       0.15E+00   15.4     0.00000188     -5912.7289969693 -4.94E-06

  Leaving inner SCF loop after reaching    30 steps.


  Electronic density on regular grids:      -3467.9999999968        0.0000000032
  Core density on regular grids:             3467.9999999952       -0.0000000048
  Total charge density on r-space grids:       -0.0000000015
  Total charge density g-space grids:          -0.0000000005

  Overlap energy of the core charge distribution:               0.00000032801789
  Self energy of the core charge distribution:             -13952.81139369569428
  Core Hamiltonian energy:                                   3144.12214927827426
  Hartree energy:                                            6202.33206477130989
  Exchange-correlation energy:                              -1303.90642539397049
  Dispersion energy:                                           -2.46539225726317

  Total energy:                                             -5912.72899696932654

  outer SCF iter =   11 RMS gradient =   0.19E-05 energy =      -5912.7289969693

  ----------------------------------- OT ---------------------------------------
  Minimizer      : DIIS                : direct inversion
                                         in the iterative subspace
                                         using   8 DIIS vectors
                                         safer DIIS on
  Preconditioner : FULL_KINETIC        : inversion of T + eS
  Precond_solver : DEFAULT
  stepsize       :    0.15000000                  energy_gap     :    0.00010000
  eps_taylor     :   0.10000E-15                  max_taylor     :             4
  ----------------------------------- OT ---------------------------------------

  Step     Update method      Time    Convergence         Total energy    Change
  ------------------------------------------------------------------------------
     1 OT DIIS     0.15E+00   34.0     0.00000636     -5912.7289971296 -1.60E-07
     2 OT DIIS     0.15E+00   15.3     0.00003926     -5912.7288034558  1.94E-04
     3 OT DIIS     0.15E+00   15.4     0.00000180     -5912.7290077901 -2.04E-04
     4 OT DIIS     0.15E+00   15.4     0.00000162     -5912.7290087846 -9.95E-07
     5 OT DIIS     0.15E+00   15.5     0.00000161     -5912.7290102030 -1.42E-06
     6 OT DIIS     0.15E+00   15.5     0.00000161     -5912.7290152176 -5.01E-06
     7 OT DIIS     0.15E+00   15.5     0.00000161     -5912.7290338146 -1.86E-05
     8 OT SD       0.15E+00   15.5     0.00000161     -5912.7291235917 -8.98E-05
     9 OT SD       0.15E+00   15.5     0.00000167     -5912.7291286182 -5.03E-06
    10 OT SD       0.15E+00   15.5     0.00000285     -5912.7291328720 -4.25E-06
    11 OT SD       0.15E+00   15.4     0.00001320     -5912.7291134677  1.94E-05
    12 OT DIIS     0.15E+00   15.6     0.00007418     -5912.7283390544  7.74E-04
    13 OT SD       0.15E+00   15.5     0.00000161     -5912.7290559009 -7.17E-04
    14 OT SD       0.15E+00   15.5     0.00000176     -5912.7290608583 -4.96E-06
    15 OT SD       0.15E+00   15.5     0.00000474     -5912.7290632784 -2.42E-06
    16 OT DIIS     0.15E+00   15.5     0.00002809     -5912.7289656910  9.76E-05
    17 OT DIIS     0.15E+00   15.5     0.00000161     -5912.7290207681 -5.51E-05
    18 OT DIIS     0.15E+00   15.4     0.00000161     -5912.7290272104 -6.44E-06
    19 OT DIIS     0.15E+00   15.5     0.00000161     -5912.7290850053 -5.78E-05
    20 OT SD       0.15E+00   15.4     0.00000161     -5912.7290871288 -2.12E-06
    21 OT SD       0.15E+00   15.5     0.00000164     -5912.7290921469 -5.02E-06
    22 OT SD       0.15E+00   15.4     0.00000253     -5912.7290966688 -4.52E-06
    23 OT DIIS     0.15E+00   15.4     0.00001199     -5912.7290828142  1.39E-05
    24 OT DIIS     0.15E+00   15.4     0.00000162     -5912.7290931879 -1.04E-05
    25 OT SD       0.15E+00   15.5     0.00000162     -5912.7291015560 -8.37E-06
    26 OT SD       0.15E+00   15.5     0.00000215     -5912.7291063101 -4.75E-06
    27 OT DIIS     0.15E+00   15.4     0.00000922     -5912.7291006420  5.67E-06
    28 OT DIIS     0.15E+00   15.4     0.00000161     -5912.7290917962  8.85E-06
    29 OT SD       0.15E+00   15.4     0.00000163     -5912.7291255085 -3.37E-05
    30 OT DIIS     0.15E+00   15.4     0.00000244     -5912.7291300105 -4.50E-06

  Leaving inner SCF loop after reaching    30 steps.


  Electronic density on regular grids:      -3467.9999999506        0.0000000494
  Core density on regular grids:             3467.9999999952       -0.0000000048
  Total charge density on r-space grids:        0.0000000446
  Total charge density g-space grids:           0.0000000455

  Overlap energy of the core charge distribution:               0.00000032801789
  Self energy of the core charge distribution:             -13952.81139369569428
  Core Hamiltonian energy:                                   3144.12087268310506
  Hartree energy:                                            6202.33297270700677
  Exchange-correlation energy:                              -1303.90618977562372
  Dispersion energy:                                           -2.46539225726317

  Total energy:                                             -5912.72913001045163

  outer SCF iter =   12 RMS gradient =   0.24E-05 energy =      -5912.7291300105

  ----------------------------------- OT ---------------------------------------
  Minimizer      : DIIS                : direct inversion
                                         in the iterative subspace
                                         using   8 DIIS vectors
                                         safer DIIS on
  Preconditioner : FULL_KINETIC        : inversion of T + eS
  Precond_solver : DEFAULT
  stepsize       :    0.15000000                  energy_gap     :    0.00010000
  eps_taylor     :   0.10000E-15                  max_taylor     :             4
  ----------------------------------- OT ---------------------------------------

  Step     Update method      Time    Convergence         Total energy    Change
  ------------------------------------------------------------------------------
     1 OT DIIS     0.15E+00   35.3     0.00000162     -5912.7291345630 -4.55E-06
     2 OT DIIS     0.15E+00   15.4     0.00000226     -5912.7291390804 -4.52E-06
     3 OT DIIS     0.15E+00   15.5     0.00000163     -5912.7291403388 -1.26E-06
     4 OT DIIS     0.15E+00   15.4     0.00000159     -5912.7291414161 -1.08E-06
     5 OT SD       0.15E+00   15.5     0.00000159     -5912.7291422227 -8.07E-07
     6 OT SD       0.15E+00   15.5     0.00000159     -5912.7291471430 -4.92E-06
     7 OT SD       0.15E+00   15.5     0.00000160     -5912.7291520654 -4.92E-06
     8 OT SD       0.15E+00   15.5     0.00000179     -5912.7291569023 -4.84E-06
     9 OT SD       0.15E+00   15.5     0.00000501     -5912.7291587508 -1.85E-06
    10 OT DIIS     0.15E+00   15.5     0.00002852     -5912.7290543964  1.04E-04
    11 OT SD       0.15E+00   15.5     0.00000160     -5912.7290849261 -3.05E-05
    12 OT SD       0.15E+00   15.5     0.00000222     -5912.7290894542 -4.53E-06
    13 OT SD       0.15E+00   15.6     0.00000932     -5912.7290827623  6.69E-06
    14 OT DIIS     0.15E+00   15.7     0.00005509     -5912.7286776071  4.05E-04
    15 OT SD       0.15E+00   15.5     0.00000163     -5912.7290264134 -3.49E-04
    16 OT SD       0.15E+00   15.5     0.00000269     -5912.7290305804 -4.17E-06
    17 OT SD       0.15E+00   15.6     0.00001272     -5912.7290132532  1.73E-05
    18 OT DIIS     0.15E+00   15.6     0.00007415     -5912.7282626089  7.51E-04
    19 OT SD       0.15E+00   15.4     0.00000160     -5912.7289713983 -7.09E-04
    20 OT DIIS     0.15E+00   15.4     0.00000217     -5912.7289758939 -4.50E-06
    21 OT DIIS     0.15E+00   15.3     0.00000157     -5912.7289899985 -1.41E-05
    22 OT DIIS     0.15E+00   15.4     0.00000160     -5912.7290065565 -1.66E-05
    23 OT SD       0.15E+00   15.4     0.00000157     -5912.7290196721 -1.31E-05
    24 OT DIIS     0.15E+00   15.5     0.00000203     -5912.7290241803 -4.51E-06
    25 OT DIIS     0.15E+00   15.5     0.00000157     -5912.7290480203 -2.38E-05
    26 OT DIIS     0.15E+00   15.5     0.00000156     -5912.7290656753 -1.77E-05
    27 OT SD       0.15E+00   15.5     0.00000155     -5912.7290693724 -3.70E-06
    28 OT SD       0.15E+00   15.5     0.00000156     -5912.7290740883 -4.72E-06
    29 OT SD       0.15E+00   15.5     0.00000178     -5912.7290787019 -4.61E-06
    30 OT SD       0.15E+00   15.6     0.00000520     -5912.7290800048 -1.30E-06

  Leaving inner SCF loop after reaching    30 steps.


  Electronic density on regular grids:      -3467.9999999985        0.0000000015
  Core density on regular grids:             3467.9999999952       -0.0000000048
  Total charge density on r-space grids:       -0.0000000033
  Total charge density g-space grids:          -0.0000000024

  Overlap energy of the core charge distribution:               0.00000032801789
  Self energy of the core charge distribution:             -13952.81139369569428
  Core Hamiltonian energy:                                   3144.12138600813705
  Hartree energy:                                            6202.33263314514079
  Exchange-correlation energy:                              -1303.90631353314984
  Dispersion energy:                                           -2.46539225726317

  Total energy:                                             -5912.72908000481129

  outer SCF iter =   13 RMS gradient =   0.52E-05 energy =      -5912.7290800048

  ----------------------------------- OT ---------------------------------------
  Minimizer      : DIIS                : direct inversion
                                         in the iterative subspace
                                         using   8 DIIS vectors
                                         safer DIIS on
  Preconditioner : FULL_KINETIC        : inversion of T + eS
  Precond_solver : DEFAULT
  stepsize       :    0.15000000                  energy_gap     :    0.00010000
  eps_taylor     :   0.10000E-15                  max_taylor     :             4
  ----------------------------------- OT ---------------------------------------

  Step     Update method      Time    Convergence         Total energy    Change
  ------------------------------------------------------------------------------
     1 OT DIIS     0.15E+00   34.3     0.00002907     -5912.7289683548  1.12E-04
     2 OT DIIS     0.15E+00   15.5     0.00017138     -5912.7249454628  4.02E-03
     3 OT DIIS     0.15E+00   15.5     0.00000887     -5912.7290823515 -4.14E-03
     4 OT DIIS     0.15E+00   15.6     0.00000191     -5912.7290941589 -1.18E-05
     5 OT DIIS     0.15E+00   15.7     0.00000157     -5912.7290954827 -1.32E-06
     6 OT DIIS     0.15E+00   15.7     0.00000156     -5912.7290964917 -1.01E-06
     7 OT SD       0.15E+00   15.7     0.00000156     -5912.7290972247 -7.33E-07
     8 OT SD       0.15E+00   15.7     0.00000156     -5912.7291019603 -4.74E-06
     9 OT SD       0.15E+00   15.7     0.00000169     -5912.7291066457 -4.69E-06
    10 OT SD       0.15E+00   15.7     0.00000429     -5912.7291092778 -2.63E-06
    11 OT DIIS     0.15E+00   15.6     0.00002482     -5912.7290331260  7.62E-05
    12 OT SD       0.15E+00   15.7     0.00000158     -5912.7290350652 -1.94E-06
    13 OT SD       0.15E+00   15.7     0.00000217     -5912.7290394367 -4.37E-06
    14 OT SD       0.15E+00   15.7     0.00000881     -5912.7290335797  5.86E-06
    15 OT DIIS     0.15E+00   15.7     0.00005020     -5912.7286879638  3.46E-04
    16 OT DIIS     0.15E+00   15.7     0.00000157     -5912.7289673447 -2.79E-04
    17 OT DIIS     0.15E+00   15.7     0.00000158     -5912.7289748245 -7.48E-06
    18 OT DIIS     0.15E+00   15.6     0.00000158     -5912.7290517674 -7.69E-05
    19 OT SD       0.15E+00   15.7     0.00000155     -5912.7290619227 -1.02E-05
    20 OT SD       0.15E+00   15.6     0.00000159     -5912.7290666132 -4.69E-06
    21 OT SD       0.15E+00   15.6     0.00000254     -5912.7290707675 -4.15E-06
    22 OT DIIS     0.15E+00   15.4     0.00001218     -5912.7290557961  1.50E-05
    23 OT SD       0.15E+00   15.6     0.00000155     -5912.7290709122 -1.51E-05
    24 OT SD       0.15E+00   15.6     0.00000157     -5912.7290756173 -4.71E-06
    25 OT SD       0.15E+00   15.7     0.00000198     -5912.7290801138 -4.50E-06
    26 OT SD       0.15E+00   15.6     0.00000721     -5912.7290779298  2.18E-06
    27 OT DIIS     0.15E+00   15.6     0.00004133     -5912.7288484006  2.30E-04
    28 OT DIIS     0.15E+00   15.5     0.00000158     -5912.7290299070 -1.82E-04
    29 OT SD       0.15E+00   15.6     0.00000155     -5912.7290344759 -4.57E-06
    30 OT SD       0.15E+00   15.6     0.00000159     -5912.7290391661 -4.69E-06

  Leaving inner SCF loop after reaching    30 steps.


  Electronic density on regular grids:      -3468.0000000001       -0.0000000001
  Core density on regular grids:             3467.9999999952       -0.0000000048
  Total charge density on r-space grids:       -0.0000000049
  Total charge density g-space grids:          -0.0000000039

  Overlap energy of the core charge distribution:               0.00000032801789
  Self energy of the core charge distribution:             -13952.81139369569428
  Core Hamiltonian energy:                                   3144.12166908009567
  Hartree energy:                                            6202.33240881876736
  Exchange-correlation energy:                              -1303.90633143998002
  Dispersion energy:                                           -2.46539225726317

  Total energy:                                             -5912.72903916605628

  outer SCF iter =   14 RMS gradient =   0.16E-05 energy =      -5912.7290391661

  ----------------------------------- OT ---------------------------------------
  Minimizer      : DIIS                : direct inversion
                                         in the iterative subspace
                                         using   8 DIIS vectors
                                         safer DIIS on
  Preconditioner : FULL_KINETIC        : inversion of T + eS
  Precond_solver : DEFAULT
  stepsize       :    0.15000000                  energy_gap     :    0.00010000
  eps_taylor     :   0.10000E-15                  max_taylor     :             4
  ----------------------------------- OT ---------------------------------------

  Step     Update method      Time    Convergence         Total energy    Change
  ------------------------------------------------------------------------------
     1 OT DIIS     0.15E+00   35.4     0.00000244     -5912.7290433781 -4.21E-06
     2 OT DIIS     0.15E+00   15.4     0.00001129     -5912.7290310639  1.23E-05
     3 OT DIIS     0.15E+00   15.4     0.00000172     -5912.7290491729 -1.81E-05
     4 OT DIIS     0.15E+00   15.5     0.00000156     -5912.7290500816 -9.09E-07
     5 OT DIIS     0.15E+00   15.5     0.00000155     -5912.7290512138 -1.13E-06
     6 OT DIIS     0.15E+00   15.5     0.00000155     -5912.7290532333 -2.02E-06
     7 OT DIIS     0.15E+00   15.5     0.00000155     -5912.7290567091 -3.48E-06
     8 OT SD       0.15E+00   15.5     0.00000155     -5912.7290594014 -2.69E-06
     9 OT SD       0.15E+00   15.5     0.00000155     -5912.7290641044 -4.70E-06
    10 OT SD       0.15E+00   15.5     0.00000158     -5912.7290687984 -4.69E-06
    11 OT SD       0.15E+00   15.6     0.00000220     -5912.7290731637 -4.37E-06
    12 OT SD       0.15E+00   15.6     0.00000916     -5912.7290665437  6.62E-06
    13 OT DIIS     0.15E+00   15.7     0.00005280     -5912.7286867155  3.80E-04
    14 OT SD       0.15E+00   15.5     0.00000156     -5912.7290097043 -3.23E-04
    15 OT DIIS     0.15E+00   15.5     0.00000167     -5912.7290143400 -4.64E-06
    16 OT SD       0.15E+00   15.5     0.00000156     -5912.7290168188 -2.48E-06
    17 OT DIIS     0.15E+00   15.5     0.00000170     -5912.7290214567 -4.64E-06
    18 OT SD       0.15E+00   15.5     0.00000155     -5912.7290424863 -2.10E-05
    19 OT DIIS     0.15E+00   15.4     0.00000158     -5912.7290471672 -4.68E-06
    20 OT DIIS     0.15E+00   15.4     0.00000155     -5912.7290495825 -2.42E-06
    21 OT DIIS     0.15E+00   15.3     0.00000155     -5912.7290569247 -7.34E-06
    22 OT DIIS     0.15E+00   15.4     0.00000155     -5912.7290609583 -4.03E-06
    23 OT DIIS     0.15E+00   15.5     0.00000156     -5912.7290684538 -7.50E-06
    24 OT DIIS     0.15E+00   15.4     0.00000155     -5912.7290734311 -4.98E-06
    25 OT DIIS     0.15E+00   15.4     0.00000155     -5912.7290743954 -9.64E-07
    26 OT SD       0.15E+00   15.4     0.00000155     -5912.7290752412 -8.46E-07
    27 OT SD       0.15E+00   15.5     0.00000157     -5912.7290799220 -4.68E-06
    28 OT SD       0.15E+00   15.5     0.00000230     -5912.7290842331 -4.31E-06
    29 OT SD       0.15E+00   15.5     0.00001068     -5912.7290742601  9.97E-06
    30 OT DIIS     0.15E+00   15.5     0.00006625     -5912.7285050776  5.69E-04

  Leaving inner SCF loop after reaching    30 steps.


  Electronic density on regular grids:      -3467.9999999954        0.0000000046
  Core density on regular grids:             3467.9999999952       -0.0000000048
  Total charge density on r-space grids:       -0.0000000001
  Total charge density g-space grids:           0.0000000008

  Overlap energy of the core charge distribution:               0.00000032801789
  Self energy of the core charge distribution:             -13952.81139369569428
  Core Hamiltonian energy:                                   3144.12166998236080
  Hartree energy:                                            6202.33292886321215
  Exchange-correlation energy:                              -1303.90631829824633
  Dispersion energy:                                           -2.46539225726317

  Total energy:                                             -5912.72850507761359

  outer SCF iter =   15 RMS gradient =   0.66E-04 energy =      -5912.7285050776

  ----------------------------------- OT ---------------------------------------
  Minimizer      : DIIS                : direct inversion
                                         in the iterative subspace
                                         using   8 DIIS vectors
                                         safer DIIS on
  Preconditioner : FULL_KINETIC        : inversion of T + eS
  Precond_solver : DEFAULT
  stepsize       :    0.15000000                  energy_gap     :    0.00010000
  eps_taylor     :   0.10000E-15                  max_taylor     :             4
  ----------------------------------- OT ---------------------------------------

  Step     Update method      Time    Convergence         Total energy    Change
  ------------------------------------------------------------------------------
     1 OT DIIS     0.15E+00   34.2     0.00000155     -5912.7290242488 -5.19E-04
     2 OT DIIS     0.15E+00   15.4     0.00000159     -5912.7290289067 -4.66E-06
     3 OT DIIS     0.15E+00   15.4     0.00000155     -5912.7290298043 -8.98E-07
     4 OT DIIS     0.15E+00   15.5     0.00000155     -5912.7290317651 -1.96E-06
     5 OT DIIS     0.15E+00   15.5     0.00000155     -5912.7290376187 -5.85E-06
     6 OT DIIS     0.15E+00   15.5     0.00000155     -5912.7290454083 -7.79E-06
     7 OT DIIS     0.15E+00   15.4     0.00000155     -5912.7290535132 -8.10E-06
     8 OT DIIS     0.15E+00   15.5     0.00000155     -5912.7290589728 -5.46E-06
     9 OT SD       0.15E+00   15.5     0.00000155     -5912.7290595869 -6.14E-07
    10 OT SD       0.15E+00   15.5     0.00000155     -5912.7290642481 -4.66E-06
    11 OT SD       0.15E+00   15.4     0.00000176     -5912.7290688175 -4.57E-06
    12 OT SD       0.15E+00   15.6     0.00000536     -5912.7290699538 -1.14E-06
    13 OT DIIS     0.15E+00   15.5     0.00003138     -5912.7289433904  1.27E-04
    14 OT SD       0.15E+00   15.5     0.00000155     -5912.7290175974 -7.42E-05
    15 OT DIIS     0.15E+00   15.5     0.00000159     -5912.7290222395 -4.64E-06
    16 OT DIIS     0.15E+00   15.5     0.00000156     -5912.7290250955 -2.86E-06
    17 OT SD       0.15E+00   15.5     0.00000155     -5912.7290349484 -9.85E-06
    18 OT SD       0.15E+00   15.4     0.00000155     -5912.7290396160 -4.67E-06
    19 OT SD       0.15E+00   15.4     0.00000169     -5912.7290442139 -4.60E-06
    20 OT SD       0.15E+00   15.4     0.00000410     -5912.7290468572 -2.64E-06
    21 OT DIIS     0.15E+00   15.4     0.00002239     -5912.7289833548  6.35E-05
    22 OT DIIS     0.15E+00   15.5     0.00000155     -5912.7290085819 -2.52E-05
    23 OT SD       0.15E+00   15.6     0.00000155     -5912.7290376426 -2.91E-05
    24 OT SD       0.15E+00   15.6     0.00000185     -5912.7290421555 -4.51E-06
    25 OT SD       0.15E+00   15.6     0.00000610     -5912.7290420226  1.33E-07
    26 OT DIIS     0.15E+00   15.5     0.00003510     -5912.7288792072  1.63E-04
    27 OT DIIS     0.15E+00   15.5     0.00000155     -5912.7290387490 -1.60E-04
    28 OT SD       0.15E+00   15.5     0.00000155     -5912.7290394229 -6.74E-07
    29 OT SD       0.15E+00   15.5     0.00000170     -5912.7290440051 -4.58E-06
    30 OT DIIS     0.15E+00   15.4     0.00000466     -5912.7290460905 -2.09E-06

  Leaving inner SCF loop after reaching    30 steps.


  Electronic density on regular grids:      -3468.0000000000        0.0000000000
  Core density on regular grids:             3467.9999999952       -0.0000000048
  Total charge density on r-space grids:       -0.0000000048
  Total charge density g-space grids:          -0.0000000038

  Overlap energy of the core charge distribution:               0.00000032801789
  Self energy of the core charge distribution:             -13952.81139369569428
  Core Hamiltonian energy:                                   3144.12159063179115
  Hartree energy:                                            6202.33248302145967
  Exchange-correlation energy:                              -1303.90633411880663
  Dispersion energy:                                           -2.46539225726317

  Total energy:                                             -5912.72904609049510

  outer SCF iter =   16 RMS gradient =   0.47E-05 energy =      -5912.7290460905

  ----------------------------------- OT ---------------------------------------
  Minimizer      : DIIS                : direct inversion
                                         in the iterative subspace
                                         using   8 DIIS vectors
                                         safer DIIS on
  Preconditioner : FULL_KINETIC        : inversion of T + eS
  Precond_solver : DEFAULT
  stepsize       :    0.15000000                  energy_gap     :    0.00010000
  eps_taylor     :   0.10000E-15                  max_taylor     :             4
  ----------------------------------- OT ---------------------------------------

  Step     Update method      Time    Convergence         Total energy    Change
  ------------------------------------------------------------------------------
     1 OT DIIS     0.15E+00   35.3     0.00000157     -5912.7290664608 -2.04E-05
     2 OT DIIS     0.15E+00   15.4     0.00000238     -5912.7290705798 -4.12E-06
     3 OT DIIS     0.15E+00   15.4     0.00000154     -5912.7290717809 -1.20E-06
     4 OT DIIS     0.15E+00   15.4     0.00000154     -5912.7290730579 -1.28E-06
     5 OT DIIS     0.15E+00   15.5     0.00000153     -5912.7290742771 -1.22E-06
     6 OT DIIS     0.15E+00   15.5     0.00000153     -5912.7290793088 -5.03E-06
     7 OT SD       0.15E+00   15.5     0.00000153     -5912.7290805420 -1.23E-06
     8 OT SD       0.15E+00   15.5     0.00000153     -5912.7290851381 -4.60E-06
     9 OT SD       0.15E+00   15.5     0.00000154     -5912.7290897322 -4.59E-06
    10 OT SD       0.15E+00   15.5     0.00000168     -5912.7290942588 -4.53E-06
    11 OT SD       0.15E+00   15.5     0.00000376     -5912.7290971274 -2.87E-06
    12 OT DIIS     0.15E+00   15.5     0.00001935     -5912.7290497372  4.74E-05
    13 OT DIIS     0.15E+00   15.5     0.00000156     -5912.7290242280  2.55E-05
    14 OT SD       0.15E+00   15.5     0.00000155     -5912.7290353517 -1.11E-05
    15 OT SD       0.15E+00   15.5     0.00000206     -5912.7290396733 -4.32E-06
    16 OT SD       0.15E+00   15.5     0.00000840     -5912.7290350419  4.63E-06
    17 OT DIIS     0.15E+00   15.4     0.00005031     -5912.7287016024  3.33E-04
[...]
     6 OT DIIS     0.15E+00   15.6     0.00000160     -5912.8828212677 -1.86E-05
     7 OT DIIS     0.15E+00   15.7     0.00000118     -5912.8828259560 -4.69E-06
     8 OT DIIS     0.15E+00   15.7     0.00000087     -5912.8828284245 -2.47E-06

  *** SCF run converged in     8 steps ***


  Electronic density on regular grids:      -3468.0000000015       -0.0000000015
  Core density on regular grids:             3467.9999999952       -0.0000000048
  Total charge density on r-space grids:       -0.0000000063
  Total charge density g-space grids:          -0.0000000054

  Overlap energy of the core charge distribution:               0.00000032802463
  Self energy of the core charge distribution:             -13952.81139369569428
  Core Hamiltonian energy:                                   3143.51013485676322
  Hartree energy:                                            6202.66036737116519
  Exchange-correlation energy:                              -1303.77342646970305
  Dispersion energy:                                           -2.46851081506479

  Total energy:                                             -5912.88282842451099

  outer SCF iter =    1 RMS gradient =   0.87E-06 energy =      -5912.8828284245
  outer SCF loop converged in   1 iterations or    8 steps


 ENERGY| Total FORCE_EVAL ( QS ) energy (a.u.):            -5912.882828424510990


 -------------------------------------------------------------------------------
 -                                                                             -
 -                                DBCSR STATISTICS                             -
 -                                                                             -
 -------------------------------------------------------------------------------
 COUNTER                                    TOTAL       BLAS       SMM       ACC
 flops     6 x     6 x     6             68525568       0.0%    100.0%      0.0%
 flops     6 x    32 x    32            541458432       0.0%    100.0%      0.0%
 flops     6 x     6 x   416           1398159360       0.0%    100.0%      0.0%
 flops     6 x     6 x   422           1418325120       0.0%    100.0%      0.0%
 flops     6 x     6 x   448           3011420160       0.0%    100.0%      0.0%
 flops     6 x     6 x    13          15089369256       0.0%    100.0%      0.0%
 flops    13 x     6 x     6          15199353000       0.0%    100.0%      0.0%
 flops     6 x    32 x     6          19633840128       0.0%    100.0%      0.0%
 flops    13 x    32 x    32         168935030784       0.0%    100.0%      0.0%
 flops     6 x    13 x   416         247463049600       0.0%    100.0%      0.0%
 flops    13 x     6 x   416         247486801536       0.0%    100.0%      0.0%
 flops     6 x    13 x   422         251032228200       0.0%    100.0%      0.0%
 flops    13 x     6 x   422         251056322712       0.0%    100.0%      0.0%
 flops     6 x    13 x   448         532997337600       0.0%    100.0%      0.0%
 flops    13 x     6 x   448         533048495616       0.0%    100.0%      0.0%
 flops   416 x   416 x   416        3342843838464     100.0%      0.0%      0.0%
 flops   416 x   416 x   422        3391057932288     100.0%      0.0%      0.0%
 flops   416 x   422 x   416        3391057932288     100.0%      0.0%      0.0%
 flops   422 x   416 x   416        3391057932288     100.0%      0.0%      0.0%
 flops   416 x   422 x   422        3439967421696     100.0%      0.0%      0.0%
 flops   422 x   416 x   422        3439967421696     100.0%      0.0%      0.0%
 flops   422 x   422 x   416        3439967421696     100.0%      0.0%      0.0%
 flops   422 x   422 x   422        3489582336432     100.0%      0.0%      0.0%
 flops    13 x     6 x    13        3815725119336       0.0%    100.0%      0.0%
 flops     6 x    32 x    13        4345738345728       0.0%    100.0%      0.0%
 flops    13 x    32 x     6        4345738345728       0.0%    100.0%      0.0%
 flops   416 x   416 x   448        7199971344384     100.0%      0.0%      0.0%
 flops   416 x   448 x   416        7199971344384     100.0%      0.0%      0.0%
 flops   448 x   416 x   416        7199971344384     100.0%      0.0%      0.0%
 flops   416 x   422 x   448        7303817084928     100.0%      0.0%      0.0%
 flops   416 x   448 x   422        7303817084928     100.0%      0.0%      0.0%
 flops   422 x   416 x   448        7303817084928     100.0%      0.0%      0.0%
 flops   422 x   448 x   416        7303817084928     100.0%      0.0%      0.0%
 flops   448 x   416 x   422        7303817084928     100.0%      0.0%      0.0%
 flops   448 x   422 x   416        7303817084928     100.0%      0.0%      0.0%
 flops   422 x   422 x   448        7409160600576     100.0%      0.0%      0.0%
 flops   422 x   448 x   422        7409160600576     100.0%      0.0%      0.0%
 flops   448 x   422 x   422        7409160600576     100.0%      0.0%      0.0%
 flops   448 x   448 x   416       15507630587904     100.0%      0.0%      0.0%
 flops   416 x   448 x   448       15507630587904     100.0%      0.0%      0.0%
 flops   448 x   416 x   448       15507630587904     100.0%      0.0%      0.0%
 flops   448 x   448 x   422       15731298336768     100.0%      0.0%      0.0%
 flops   422 x   448 x   448       15731298336768     100.0%      0.0%      0.0%
 flops   448 x   422 x   448       15731298336768     100.0%      0.0%      0.0%
 flops   448 x   448 x   448       33401050497024     100.0%      0.0%      0.0%
 flops   416 x   416 x  1878       45323083972608     100.0%      0.0%      0.0%
 flops   416 x   422 x  1878       45976782299136     100.0%      0.0%      0.0%
 flops   422 x   416 x  1878       45976782299136     100.0%      0.0%      0.0%
 flops   422 x   422 x  1878       46639908966912     100.0%      0.0%      0.0%
 flops  1878 x   416 x   416       56256055984128     100.0%      0.0%      0.0%
 flops  1878 x   416 x   422       57067441406976     100.0%      0.0%      0.0%
 flops  1878 x   422 x   416       57067441406976     100.0%      0.0%      0.0%
 flops  1878 x   422 x   422       57890529504192     100.0%      0.0%      0.0%
 flops    13 x    13 x   416       62794706165568       0.0%    100.0%      0.0%
 flops    13 x    13 x   422       63700399042956       0.0%    100.0%      0.0%
 flops   416 x   448 x  1878       97618950094848     100.0%      0.0%      0.0%
 flops   448 x   416 x  1878       97618950094848     100.0%      0.0%      0.0%
 flops   422 x   448 x  1878       99026915721216     100.0%      0.0%      0.0%
 flops   448 x   422 x  1878       99026915721216     100.0%      0.0%      0.0%
 flops  1878 x   448 x   416      121166889811968     100.0%      0.0%      0.0%
 flops  1878 x   416 x   448      121166889811968     100.0%      0.0%      0.0%
 flops  1878 x   448 x   422      122914489184256     100.0%      0.0%      0.0%
 flops  1878 x   422 x   448      122914489184256     100.0%      0.0%      0.0%
 flops    13 x    13 x   448      135250136356608       0.0%    100.0%      0.0%
 flops   448 x   448 x  1878      210256200204288     100.0%      0.0%      0.0%
 flops  1878 x   416 x  1878      216579795554304     100.0%      0.0%      0.0%
 flops  1878 x   422 x  1878      219703542605568     100.0%      0.0%      0.0%
 flops  1878 x   448 x   448      260974839595008     100.0%      0.0%      0.0%
 flops  1878 x   448 x  1878      466479559655424     100.0%      0.0%      0.0%
 flops    13 x    32 x    13     1098928834368768       0.0%    100.0%      0.0%
 flops inhomo. stacks                           0       0.0%      0.0%      0.0%
 flops total                         4.285210E+15      67.9%     32.1%      0.0%
 flops max/rank                    284.102829E+12      66.9%     33.1%      0.0%
 matmuls inhomo. stacks                         0       0.0%      0.0%      0.0%
 matmuls total                       107093531764       0.0%    100.0%      0.0%
 number of processed stacks             115032519       3.7%     96.3%      0.0%
 average stack size                                     1.0     966.9       0.0
 marketing flops                     5.770737E+15
 -------------------------------------------------------------------------------
 # multiplications                          81838
 max memory usage/rank               2.018099E+09
 # max total images/rank                        1
 # max 3D layers                                1
 # MPI messages exchanged                 7856448
 MPI messages size (bytes):
  total size                        44.003303E+12
  min size                           0.000000E+00
  max size                          28.215072E+06
  average size                       5.600916E+06
 MPI breakdown and total messages size (bytes):
             size <=      128               26928                        0
       128 < size <=     8192                   0                        0
      8192 < size <=    32768                   0                        0
     32768 < size <=   131072                2448                270905472
    131072 < size <=  4194304             3267408            4912149304224
   4194304 < size <= 16777216             4160706           29725180736496
  16777216 < size                          398958            9385433013504
 -------------------------------------------------------------------------------

 MEMORY| Estimated peak process memory [MiB]                                1925

 -------------------------------------------------------------------------------
 -                                                                             -
 -                         MESSAGE PASSING PERFORMANCE                         -
 -                                                                             -
 -------------------------------------------------------------------------------

 ROUTINE             CALLS      AVE VOLUME [Bytes]
 MP_Group             2541
 MP_Bcast            41315                  12124.
 MP_Allreduce       558506                    298.
 MP_Sync                 4
 MP_Alltoall        355898               37165059.
 MP_SendRecv          7740                  25756.
 MP_ISendRecv       272310                 730080.
 MP_Wait           4403077
 MP_ISend          1455896                2402211.
 MP_IRecv          1455896                2407708.
 MP_Recv             20706                1457218.
 MP_Memory         3589130
 -------------------------------------------------------------------------------


 -------------------------------------------------------------------------------
 -                                                                             -
 -                           R E F E R E N C E S                               -
 -                                                                             -
 -------------------------------------------------------------------------------
 
 CP2K version 7.0 (Development Version), the CP2K developers group (2018).
 CP2K is freely available from https://www.cp2k.org/ .

 Schuett, Ole; Messmer, Peter; Hutter, Juerg; VandeVondele, Joost. 
 Electronic Structure Calculations on Graphics Processing Units, John Wiley & Sons, Ltd, 173-190 (2016). 
 GPU-Accelerated Sparse Matrix-Matrix Multiplication for Linear Scaling Density Functional Theory.
 http://dx.doi.org/10.1002/9781118670712.ch8


 Borstnik, U; VandeVondele, J; Weber, V; Hutter, J. 
 PARALLEL COMPUTING, 40 (5-6), 47-58 (2014). 
 Sparse matrix multiplication: The distributed block-compressed sparse
 row library.
 http://dx.doi.org/10.1016/j.parco.2014.03.012


 Hutter, J; Iannuzzi, M; Schiffmann, F; VandeVondele, J. 
 WILEY INTERDISCIPLINARY REVIEWS-COMPUTATIONAL MOLECULAR SCIENCE, 4 (1), 15-25 (2014). 
 CP2K: atomistic simulations of condensed matter systems.
 http://dx.doi.org/10.1002/wcms.1159


 Grimme, S; Ehrlich, S; Goerigk, L. 
 JOURNAL OF COMPUTATIONAL CHEMISTRY, 32, 1456 (2011). 
 Effect of the damping function in dispersion corrected density functional theory.
 http://dx.doi.org/10.1002/jcc.21759


 Grimme, S; Antony, J; Ehrlich, S; Krieg, H. 
 JOURNAL OF CHEMICAL PHYSICS, 132 (15), 154104 (2010). 
 A consistent and accurate ab initio parametrization of density
 functional dispersion correction (DFT-D) for the 94 elements H-Pu.
 http://dx.doi.org/10.1063/1.3382344


 VandeVondele, J; Hutter, J. 
 JOURNAL OF CHEMICAL PHYSICS, 127 (11), 114105 (2007). 
 Gaussian basis sets for accurate calculations on molecular systems in
 gas and condensed phases.
 http://dx.doi.org/10.1063/1.2770708


 Krack, M. 
 THEORETICAL CHEMISTRY ACCOUNTS, 114 (1-3), 145-152 (2005). 
 Pseudopotentials for H to Kr optimized for gradient-corrected
 exchange-correlation functionals.
 http://dx.doi.org/10.1007/s00214-005-0655-y


 VandeVondele, J; Krack, M; Mohamed, F; Parrinello, M; Chassaing, T;
 Hutter, J. COMPUTER PHYSICS COMMUNICATIONS, 167 (2), 103-128 (2005). 
 QUICKSTEP: Fast and accurate density functional calculations using a
 mixed Gaussian and plane waves approach.
 http://dx.doi.org/10.1016/j.cpc.2004.12.014


 Frigo, M; Johnson, SG. 
 PROCEEDINGS OF THE IEEE, 93 (2), 216-231 (2005). 
 The design and implementation of FFTW3.
 http://dx.doi.org/10.1109/JPROC.2004.840301


 Kolafa, J. 
 JOURNAL OF COMPUTATIONAL CHEMISTRY, 25 (3), 335-342 (2004). 
 Time-reversible always stable predictor-corrector method for molecular dynamics of polarizable molecules.
 http://dx.doi.org/10.1002/jcc.10385


 VandeVondele, J; Hutter, J. 
 JOURNAL OF CHEMICAL PHYSICS, 118 (10), 4365-4369 (2003). 
 An efficient orbital transformation method for electronic structure
 calculations.
 http://dx.doi.org/10.1063/1.1543154


 Hartwigsen, C; Goedecker, S; Hutter, J. 
 PHYSICAL REVIEW B, 58 (7), 3641-3662 (1998). 
 Relativistic separable dual-space Gaussian pseudopotentials from H to Rn.
 http://dx.doi.org/10.1103/PhysRevB.58.3641


 Lippert, G; Hutter, J; Parrinello, M. 
 MOLECULAR PHYSICS, 92 (3), 477-487 (1997). 
 A hybrid Gaussian and plane wave density functional scheme.
 http://dx.doi.org/10.1080/002689797170220


 Perdew, JP; Burke, K; Ernzerhof, M. 
 PHYSICAL REVIEW LETTERS, 77 (18), 3865-3868 (1996). 
 Generalized gradient approximation made simple.
 http://dx.doi.org/10.1103/PhysRevLett.77.3865


 Goedecker, S; Teter, M; Hutter, J. 
 PHYSICAL REVIEW B, 54 (3), 1703-1710 (1996). 
 Separable dual-space Gaussian pseudopotentials.
 http://dx.doi.org/10.1103/PhysRevB.54.1703


 -------------------------------------------------------------------------------
 -                                                                             -
 -                                T I M I N G                                  -
 -                                                                             -
 -------------------------------------------------------------------------------
 SUBROUTINE                       CALLS  ASD         SELF TIME        TOTAL TIME
                                MAXIMUM       AVERAGE  MAXIMUM  AVERAGE  MAXIMUM
 CP2K                                 1  1.0     0.04     0.05 72845.61 72846.04
 cp_geo_opt                           1  2.0     0.00     0.00 72844.21 72844.64
 geoopt_bfgs                          1  3.0     0.12     0.21 72844.21 72844.64
 cp_eval_at                         130  4.0     0.01     0.03 72784.80 72785.24
 qs_forces                          129  5.0     0.02     0.02 72647.65 72648.07
 qs_energies                        130  6.0     0.01     0.02 71109.35 71111.48
 scf_env_do_scf                     130  7.0     0.01     0.05 69886.34 69887.59
 scf_env_do_scf_inner_loop         4409  8.0     0.22     0.98 67168.60 67330.57
 rebuild_ks_matrix                 4538  9.9     0.01     0.01 44540.34 44627.28
 qs_ks_build_kohn_sham_matrix      4538 10.9     0.60     0.69 44540.33 44627.27
 qs_ks_update_qs_env               4613  9.0     0.03     0.04 43203.20 43287.73
 pw_transfer                      86357 13.6     9.70    12.12 34040.48 34308.54
 fft_wrap_pw1pw2                  77281 14.6     1.19     1.47 33646.93 33912.41
 fft_wrap_pw1pw2_150              50050 15.7  3239.74  3454.25 32479.84 32568.40
 qs_vxc_create                     4538 11.9     0.14     0.15 27031.52 27082.62
 xc_vxc_pw_create                  4538 12.9   403.12   426.18 27031.38 27082.50
 fft3d_ps                         77281 16.6 13355.13 13865.23 24677.85 25268.46
 qs_rho_update_rho                 4539  9.0     0.05     0.06 14420.50 14566.81
 calculate_rho_elec                4539 10.0  5480.12  5754.55 14420.45 14566.77
 xc_rho_set_and_dset_create        4538 13.9   154.05   159.06 13532.07 13597.95
 dbcsr_multiply_generic           81838 14.0     5.62     6.01 12990.10 13102.90
 qs_scf_new_mos                    4409  9.0     0.04     0.07 11867.61 12049.12
 qs_scf_loop_do_ot                 4409 10.0     0.04     0.05 11867.57 12049.08
 sum_up_and_integrate              4538 11.9    94.77    97.51 11306.68 11311.41
 integrate_v_rspace                4538 12.9  5738.46  5971.83 11211.90 11219.17
 ot_scf_mini                       4409 11.0     0.24     0.27 10915.01 11069.03
 multiply_cannon                  81838 15.0    11.85    12.62  9815.46 10207.19
 density_rs2pw                     4539 11.0     0.28     0.31  8268.16  8607.60
 multiply_cannon_multrec         327352 16.0  7754.04  8155.54  7755.47  8156.92
 ot_mini                           4409 12.0     0.02     0.03  7282.25  7447.65
 x_to_yz                          40843 18.1  5339.65  5485.54  6871.79  7341.36
 potential_pw2rs                   4538 13.9    13.79    14.47  5086.52  5091.54
 yz_to_x                          36438 17.1  2848.87  2940.66  4448.90  4979.92
 qs_ot_get_derivative              4409 13.0     0.04     0.06  4571.19  4729.19
 mp_alltoall_z22v                 77281 18.6  3132.16  4368.65  3132.16  4368.65
 rs_pw_transfer                   36567 13.4     0.74     0.85  3105.68  3449.55
 pw_scatter_p                     40843 17.1  3068.67  3188.77  3068.67  3188.77
 qs_ot_get_derivative_taylor       3960 14.0     0.17     0.21  2683.83  2825.39
 pw_gather_p                      36438 16.1  2543.52  2708.01  2543.52  2708.01
 ot_diis_step                      4409 13.0     0.29     0.32  2702.78  2702.95
 init_scf_loop                      204  8.0     0.01     0.01  2576.90  2578.91
 xc_functional_eval                4538 14.9     0.06     0.08  2383.35  2452.61
 pbe_lda_eval                      4538 15.9  2383.28  2452.55  2383.28  2452.55
 apply_preconditioner_dbcsr        4613 14.0     0.01     0.02  2369.21  2395.20
 apply_single                      4613 15.0     0.02     0.02  2369.20  2395.18
 make_m2s                        163676 15.0     4.43     5.07  2213.62  2246.04
 mp_waitall_1                   4255773 17.5  1990.83  2209.13  1990.83  2209.13
 pw_derive                        27228 14.4  2129.02  2196.08  2129.02  2196.08
 multiply_cannon_metrocomm1      327352 16.0     1.39     1.55  1194.01  1535.28
 make_images                     163676 16.0    21.06    21.80  1424.46  1484.78
 -------------------------------------------------------------------------------

 The number of warnings for this run is : 3
 
 -------------------------------------------------------------------------------
  **** **** ******  **  PROGRAM ENDED AT                 2023-06-06 07:41:56.734
 ***** ** ***  *** **   PROGRAM RAN ON                                sebnode120
 **    ****   ******    PROGRAM RAN BY                                    luehrs
 ***** **    ** ** **   PROGRAM PROCESS ID                               1814525
  **** **  *******  **  PROGRAM STOPPED IN /home/luehrs/PhD/Li-S_paper/Li-S-Surf
                                           ace_Reaction/Second_Lithiation_of_S8_
                                           Surface/Second_Lithiation_around_S8/S
                                           econd_Lithiation_L3/Second_Lithiation
                                           _parallel/1.S8_p
